Madatory string --> First rule of programing: if it works then don't touch it!

10000 atoms
0 bonds
0 angles

1 atom types
0 bond types
0 angle types

0.000 25 xlo xhi
0.000 25 ylo yhi
0.000 25 zlo zhi

Masses

1 1.000000 

Atoms

1 1 1  0.0 21.259166343022166  14.057358627136413  0.01221353298990202
2 2 1  0.0 7.334705534592406  15.734281501814195  14.954626176377825
3 3 1  0.0 14.197610476006284  11.063845865270604  10.316305942238536
4 4 1  0.0 5.066363081915062  2.982948253010853  8.573286792385753
5 5 1  0.0 17.965339927328536  16.085746276939265  11.823942954373463
6 6 1  0.0 2.4654932288908666  2.786097152748929  15.565749773370474
7 7 1  0.0 17.946750871042223  7.927441090248472  17.530164500356808
8 8 1  0.0 13.524946373007271  24.911614922252962  16.819189894428998
9 9 1  0.0 4.448033538505689  18.378066582434684  10.167051065566014
10 10 1  0.0 9.76035565003637  24.096255620301445  1.4374112192578503
11 11 1  0.0 8.076101298397589  10.823497203711788  23.528176203846733
12 12 1  0.0 6.349075383035904  4.232886314039594  6.791023449637809
13 13 1  0.0 14.674898858949506  6.940138154025361  16.844523534742287
14 14 1  0.0 5.06426553221293  22.360308380717385  20.794350244361862
15 15 1  0.0 2.278001053758702  5.122240835165343  14.181495043915627
16 16 1  0.0 10.727206983923512  1.7488429756007866  20.958297259449377
17 17 1  0.0 6.5513840048187  3.8544261232645343  1.6574259293859195
18 18 1  0.0 20.957521573027837  22.979457799188758  14.866245772562085
19 19 1  0.0 3.944060547213149  20.844342203313893  4.744346011349338
20 20 1  0.0 18.712652819019265  23.57712110957075  12.727814880115359
21 21 1  0.0 10.28557062930091  2.052497015977522  13.517927005835615
22 22 1  0.0 1.9088748277434702  11.360999947707246  7.590804360647469
23 23 1  0.0 5.613032165981513  16.029958075446086  15.156578724404202
24 24 1  0.0 12.929245273488691  15.732609185751754  4.025745997715732
25 25 1  0.0 3.924002650807068  2.262015796756306  8.340457728633552
26 26 1  0.0 7.106935061971001  16.929532698130075  3.1911771357929526
27 27 1  0.0 23.42802479802377  17.62419808873131  21.43819492533096
28 28 1  0.0 19.416326275580285  18.549274969124944  16.19658625073887
29 29 1  0.0 8.891801852502859  16.72071762601754  12.154709347621315
30 30 1  0.0 11.99534008095036  4.086373280895805  10.17435484584491
31 31 1  0.0 11.90798142028204  10.420336926755574  13.023759060585741
32 32 1  0.0 16.79284431937768  15.973810227236001  15.734412819621598
33 33 1  0.0 10.524961353881507  12.284301702437372  4.428465741821378
34 34 1  0.0 19.144671703627054  9.120588188861218  13.538990548789382
35 35 1  0.0 19.54485533474393  5.061762190078634  14.20628680156193
36 36 1  0.0 6.896094243596104  17.91531554626445  10.847709305968904
37 37 1  0.0 15.482872845380577  5.5245023103625055  1.6988882370934903
38 38 1  0.0 18.819815387785404  0.19293615829784894  15.472190903554148
39 39 1  0.0 10.527569423003808  8.806047426964646  0.6518932958139989
40 40 1  0.0 9.119889301751899  10.995069779381133  3.6667488436711193
41 41 1  0.0 0.5008487977224529  3.9636847598812475  20.953934041254072
42 42 1  0.0 11.106671816238512  12.891576704448813  4.553637967622148
43 43 1  0.0 21.982615577642612  6.994863316748587  6.952389222374614
44 44 1  0.0 8.692932972571302  0.10119154478939463  20.18724202167882
45 45 1  0.0 3.0457267344280115  9.286880564202038  7.042932518250375
46 46 1  0.0 0.13338334149438913  10.916342979956218  15.899720838296973
47 47 1  0.0 12.627178340877265  22.19177852850197  19.204373571107258
48 48 1  0.0 2.4179492105203786  21.937313847414426  21.23493220595643
49 49 1  0.0 8.069237652232031  7.266841890595266  10.945872681754118
50 50 1  0.0 7.089951992510496  8.727939409672924  7.995240198779288
51 51 1  0.0 3.493363143488648  12.498699299808566  19.017739441412317
52 52 1  0.0 21.521555707216173  24.228882636528144  11.97667827847822
53 53 1  0.0 1.6912824939338655  19.049374018631315  2.265757712832947
54 54 1  0.0 9.987758186696698  0.7779192136817631  12.761999059105847
55 55 1  0.0 2.562350369414479  1.3676093485046004  9.34738855329803
56 56 1  0.0 3.8436897196218234  0.9185564010805308  14.416842153272258
57 57 1  0.0 0.09291417635604593  8.32394149313774  17.061634107500243
58 58 1  0.0 22.130617080386973  12.648531086832557  6.753824473360787
59 59 1  0.0 15.741892130617249  20.820176288958077  19.80452469736445
60 60 1  0.0 3.736207041894482  13.308120643237903  5.259673738873954
61 61 1  0.0 5.13567253286186  16.028581588433465  10.408505503639919
62 62 1  0.0 7.4958513625068885  20.60000647057007  3.3164973788894434
63 63 1  0.0 20.049297815990446  17.3909240912853  2.058393671465572
64 64 1  0.0 6.555402520609147  5.950154910506636  24.959152734721847
65 65 1  0.0 13.657216268486671  14.512474887559224  23.421611518925353
66 66 1  0.0 14.799853268518653  22.923569313716918  11.736369245493538
67 67 1  0.0 17.534112805296846  21.39115413145735  16.84187824261598
68 68 1  0.0 18.180855908926915  16.324571619211522  15.35654587049391
69 69 1  0.0 12.920876041243096  5.541868721305598  19.62184802189969
70 70 1  0.0 17.516002455625284  6.590645634155698  19.842461316581115
71 71 1  0.0 12.06065688668809  2.8206963759478314  13.541171751097172
72 72 1  0.0 24.432280558242706  7.866381344968085  4.764233370393084
73 73 1  0.0 0.8920728210047413  24.73107965537536  24.914398486260893
74 74 1  0.0 5.361669431486621  14.57486588803839  18.80015090082938
75 75 1  0.0 18.026537276616885  10.362245854784897  16.035533525299652
76 76 1  0.0 22.258678895358088  1.7759821462925596  0.2990783698440136
77 77 1  0.0 8.63193609604621  23.87504177973041  21.199077395168228
78 78 1  0.0 3.350046575957108  17.60684731659205  22.488283107185083
79 79 1  0.0 14.125431017836023  2.8157458245268217  19.937224742485867
80 80 1  0.0 15.0505045622469  6.9954101162719775  14.964341605952006
81 81 1  0.0 16.889753469038464  4.378715602605393  22.617744457975395
82 82 1  0.0 22.89200108595254  24.49303514927158  3.23201964339927
83 83 1  0.0 1.0599113249808945  11.650333635149563  13.552481718399212
84 84 1  0.0 10.974435138293126  24.470683855971732  22.254833039454944
85 85 1  0.0 0.5038407606824252  13.416731245496363  11.289475916219926
86 86 1  0.0 23.245086929340083  1.2671072621793762  11.745243021529758
87 87 1  0.0 18.91039434308585  2.0433729514619303  23.96932271461632
88 88 1  0.0 19.049520591560913  0.7737790599295691  17.352578079107925
89 89 1  0.0 17.35886681210751  13.997378099476073  13.801624257690836
90 90 1  0.0 13.201827476515119  24.59964470878464  20.122922656653333
91 91 1  0.0 6.040089492254522  16.238899692422976  11.54393890768982
92 92 1  0.0 22.365269878912667  0.5426738620174953  22.117286586629138
93 93 1  0.0 6.652181640236851  8.675579290128324  3.590190916567246
94 94 1  0.0 12.808888766541173  8.053275157405881  16.448963063868547
95 95 1  0.0 3.259840632144828  9.771014844082767  22.61170676890433
96 96 1  0.0 21.289252816175658  3.089695295303374  13.464934450639143
97 97 1  0.0 18.421696004914374  21.47049514698241  0.31658689995239797
98 98 1  0.0 23.45453036384123  12.454625065685345  15.208740259176217
99 99 1  0.0 14.092551062607905  24.205410978226222  5.930362293317764
100 100 1  0.0 15.237179331028603  7.70882978989123  20.00858393032702
101 101 1  0.0 0.8825618601726953  9.970436142524457  19.594309819182264
102 102 1  0.0 6.5699708370940995  0.8715549619935037  21.238120498853792
103 103 1  0.0 22.527476448008215  20.191353517492036  2.141856631747405
104 104 1  0.0 18.414014207412286  22.18388857631177  20.144400289211607
105 105 1  0.0 16.10590257351693  21.500699382073705  16.69447271297838
106 106 1  0.0 20.267735823188932  15.30313597473969  10.194312554813163
107 107 1  0.0 21.321614369727047  11.010046401986143  14.58961823660932
108 108 1  0.0 9.662097755988409  4.038163234494757  20.997731210937438
109 109 1  0.0 6.7795291067832055  6.861405508197676  21.327772038758074
110 110 1  0.0 24.750120421332607  11.112110053067404  18.183208853644935
111 111 1  0.0 6.958507517302751  23.14816272317828  17.736373668734817
112 112 1  0.0 17.8280820043572  8.118976566784031  21.597737766529004
113 113 1  0.0 20.10445463406899  11.363407310795775  6.163884063446778
114 114 1  0.0 17.959690533089937  16.093517984653513  6.747460761284149
115 115 1  0.0 21.79377518238192  5.8826798490698415  16.520606019179095
116 116 1  0.0 24.902995260311606  2.3355217979397214  10.701228795629863
117 117 1  0.0 20.747575667590322  6.321896882761391  3.8173652935475144
118 118 1  0.0 3.885221595534194  0.5222467699017047  15.500426261618289
119 119 1  0.0 17.812932463963843  3.1070549619106242  5.944661054905779
120 120 1  0.0 19.162761066078506  1.551247056040081  24.920805007883796
121 121 1  0.0 23.57919263701381  7.760198191129769  14.924055633580306
122 122 1  0.0 16.54203785678422  17.097583336709782  19.86717711843836
123 123 1  0.0 23.808649219640653  5.004701301657419  8.88984462639868
124 124 1  0.0 8.703585649020443  20.930137255708356  16.565631070007885
125 125 1  0.0 16.096570899854065  9.671460604654044  14.65559998811758
126 126 1  0.0 16.17805352879941  20.93121893463369  19.41895614794478
127 127 1  0.0 14.773026420953977  4.333899946369882  9.693071761439448
128 128 1  0.0 15.258170149510219  16.51949513621473  3.330600337214276
129 129 1  0.0 16.541717154730783  13.988149457415672  12.4301993061958
130 130 1  0.0 19.554303154381152  24.999851645837484  16.400532786294548
131 131 1  0.0 9.590679958180123  7.326764265318614  3.3335341616554603
132 132 1  0.0 24.765329231036638  15.52968836245793  20.813041151530772
133 133 1  0.0 11.68682352202764  6.145371761194257  12.012024625635764
134 134 1  0.0 0.22936515339147256  15.27132799188953  3.122891249424728
135 135 1  0.0 5.832126244507138  1.4356372285936918  14.612264863889676
136 136 1  0.0 2.803652443077673  19.018947722699757  20.01358003868952
137 137 1  0.0 1.5532620445819907  10.452497872871467  3.142397591818219
138 138 1  0.0 10.080233402986275  7.618425649953606  14.748108404551141
139 139 1  0.0 13.755485446770768  16.612587684939818  15.701802627650444
140 140 1  0.0 0.050306315631937215  4.804570527597943  18.205846343359276
141 141 1  0.0 23.155559002180933  6.490208006006948  5.553713977014837
142 142 1  0.0 1.30316210122918  7.4428855948553005  5.214931067163467
143 143 1  0.0 7.840501906293717  24.54711119769865  24.98327189619698
144 144 1  0.0 18.25252031594834  11.784995261683953  5.590045700671534
145 145 1  0.0 16.178465935422643  8.83487285630762  7.2306506084565205
146 146 1  0.0 6.795934921648553  21.38834533128243  17.67187057977164
147 147 1  0.0 17.644406704871205  22.277194592070256  4.87240314331574
148 148 1  0.0 20.832018247605603  19.10108965204676  3.6704422271788717
149 149 1  0.0 8.364795474100472  18.61933257947181  11.542496949027676
150 150 1  0.0 11.599430727965782  20.603630932922464  20.19278877840953
151 151 1  0.0 0.8250901506450692  22.87978384389263  15.801984086826334
152 152 1  0.0 22.555432523420507  8.9423846491722  20.443967369248846
153 153 1  0.0 16.20455291458515  19.048035875235016  4.119386196505653
154 154 1  0.0 7.325705449731856  1.6948211919013967  14.809648843641893
155 155 1  0.0 3.0901840337186237  19.03658335277759  20.98866102829682
156 156 1  0.0 23.246693759268247  5.3389313024851335  14.012726660386859
157 157 1  0.0 9.283568489401208  0.7754999650270794  1.4957989749601523
158 158 1  0.0 3.330909996888673  9.065632075413452  7.426868224217554
159 159 1  0.0 2.123286316806544  11.120651843753393  16.68253801399331
160 160 1  0.0 24.302435610600725  4.959375863356683  11.678366858492211
161 161 1  0.0 1.6412491276626113  13.18888088212759  2.555157294067381
162 162 1  0.0 2.215293692995493  2.6523478723443046  22.269896241217467
163 163 1  0.0 17.276515022457716  19.196505265370924  9.405529105400005
164 164 1  0.0 2.879471614778459  8.185875288374328  23.273318434232408
165 165 1  0.0 4.621548174762485  6.097968961338523  24.05332089421366
166 166 1  0.0 14.228253242487016  24.522091026422697  1.9213972096716851
167 167 1  0.0 4.425063714159702  1.6520792018764774  11.181345387726353
168 168 1  0.0 4.630537686081043  8.025853329870374  12.806304600367316
169 169 1  0.0 10.108479681828225  21.745978582045414  4.553677849319842
170 170 1  0.0 19.138004675546288  19.651856339188427  16.24558484474629
171 171 1  0.0 0.7834245172872872  9.870344179631282  23.576934772668935
172 172 1  0.0 22.235280798559142  16.084191643561397  14.628525765363207
173 173 1  0.0 3.5474721800993816  22.799275327472294  7.24814404327418
174 174 1  0.0 20.85303857576235  2.566385147827907  13.28157735914965
175 175 1  0.0 23.642064432085956  19.372955806434266  20.317646175689024
176 176 1  0.0 22.97667510710296  5.808482746235194  0.9132798262816294
177 177 1  0.0 21.104334647984746  12.647141595619676  1.9501276262375467
178 178 1  0.0 18.945436636942617  6.970190587431141  22.165311234166293
179 179 1  0.0 4.182040746163576  0.347937268159737  12.483825254866925
180 180 1  0.0 0.3171201241816357  8.066775618514956  6.185051397720934
181 181 1  0.0 17.528802864980612  1.1023188593787285  8.009504954037169
182 182 1  0.0 7.697711359651721  1.8941458758887113  1.818761050584533
183 183 1  0.0 8.82860037036357  7.899394739622279  3.517462899753976
184 184 1  0.0 16.80535570695264  2.6863441255899705  5.518295487088698
185 185 1  0.0 1.3631738620535212  3.860556733010345  3.403462173746133
186 186 1  0.0 9.904509879156587  5.17483725387256  6.362076567674829
187 187 1  0.0 2.371164655720867  3.0830330977619695  1.8222045281855919
188 188 1  0.0 14.740589895801392  8.67956564257906  18.474512696905077
189 189 1  0.0 17.964261778982866  10.209250559455638  13.350591653271781
190 190 1  0.0 20.66444797206944  0.6110368710738279  6.744151892054498
191 191 1  0.0 19.86416893799823  24.196134680158423  8.109219777228759
192 192 1  0.0 18.523955218794484  6.782766342868193  21.246693829444983
193 193 1  0.0 8.28975730070997  18.352209399644007  2.453761684482969
194 194 1  0.0 23.280774974555907  16.356479691724505  7.98741376714604
195 195 1  0.0 11.931279617043785  15.693504784800027  24.005775915556974
196 196 1  0.0 6.329487727617894  17.57820322760914  8.926933480774046
197 197 1  0.0 5.847889444400822  3.3517432620799177  21.20422801249896
198 198 1  0.0 7.294480736799175  5.205305074591527  24.397531620513107
199 199 1  0.0 0.2046953418071068  21.343256088506653  24.25134241596807
200 200 1  0.0 13.52953545466186  7.815374875215836  22.54325839586306
201 201 1  0.0 4.092466360618238  4.2423447344183405  10.812510174915484
202 202 1  0.0 21.038093740555833  7.414830192220462  24.856909958888714
203 203 1  0.0 15.973224199614078  24.428789892332134  12.655156359023167
204 204 1  0.0 22.3606312243862  15.871378044384867  1.526635230014492
205 205 1  0.0 0.4409725346157439  4.09149460157415  11.86373344514785
206 206 1  0.0 18.286092551790624  14.086830051281582  18.79404140312905
207 207 1  0.0 10.8367425970643  16.72227435655797  24.814635374507052
208 208 1  0.0 23.139755767288502  16.494734540409812  4.946473028793131
209 209 1  0.0 7.207715667678202  12.593740447403952  22.12759188021528
210 210 1  0.0 7.660352669401849  20.172492593379225  0.7697189776601804
211 211 1  0.0 7.717870501910099  14.7316162968915  23.11112868659186
212 212 1  0.0 4.501469543202405  17.933237526849023  2.5234689974978712
213 213 1  0.0 22.752807386890197  4.676520989538013  11.78159086788953
214 214 1  0.0 8.657497346054772  4.050588306093858  0.903918114455099
215 215 1  0.0 0.7696177446197522  11.43346030476072  11.198872044144867
216 216 1  0.0 23.142456040485186  22.82518752143344  20.157211207209656
217 217 1  0.0 1.2392047149635572  0.5071599291658124  0.17038897582029033
218 218 1  0.0 0.4622369853600816  6.885893414489027  14.8767897773112
219 219 1  0.0 12.23188522717521  20.023831903002797  21.942261203944444
220 220 1  0.0 7.429587218346051  15.452506272155405  7.614562568326014
221 221 1  0.0 1.206895421777826  7.76330062150194  0.02587693101042121
222 222 1  0.0 21.9762031744224  8.543037685969374  9.924616696275024
223 223 1  0.0 21.433141728213815  19.10625428933964  21.62983934812302
224 224 1  0.0 23.097619476074883  9.183467219983093  15.173333109782245
225 225 1  0.0 13.086790046338296  3.622361134468566  1.146054599009727
226 226 1  0.0 18.12293740255146  4.065487907060586  17.281072151532406
227 227 1  0.0 8.309015459422831  24.04488478402507  16.611080944659403
228 228 1  0.0 17.709370948448612  14.586786760453782  7.191560637089078
229 229 1  0.0 22.573667950366286  18.0200794988109  23.752229965019794
230 230 1  0.0 1.2446432882219165  24.924164223584057  0.16437410142238484
231 231 1  0.0 14.882155925118083  18.121822272449553  4.676208509623067
232 232 1  0.0 11.718034759535154  15.965279602724799  5.567624803207114
233 233 1  0.0 19.269427598784798  12.219219387367838  22.22652064530089
234 234 1  0.0 1.8410268975900617  22.0881171153104  9.510658040279218
235 235 1  0.0 10.065834159302673  15.537904657773666  19.12043823545376
236 236 1  0.0 21.37696326910626  12.578996023908322  3.2136894255819892
237 237 1  0.0 15.543376647241528  9.795408063674499  18.89167177852837
238 238 1  0.0 21.129642732650275  3.3537268672845624  3.6340638747876906
239 239 1  0.0 6.984281210780874  10.327280883992207  5.244204741972905
240 240 1  0.0 4.095475070475388  14.391978364234777  7.932817693186861
241 241 1  0.0 13.846964205592199  11.720222559722979  2.8815529526893173
242 242 1  0.0 21.88069612716915  17.03750488508999  11.065562525903259
243 243 1  0.0 15.447872993925383  5.220224765810083  20.05649757210146
244 244 1  0.0 23.38199704911858  11.704987285337062  4.369552145641029
245 245 1  0.0 1.5668570283867505  2.5787465634615065  9.530874724324159
246 246 1  0.0 10.240804792068342  17.428997393721737  13.272030478226156
247 247 1  0.0 19.839794286441848  16.55041248718869  10.234458811724734
248 248 1  0.0 15.595565513040608  23.763111753973664  16.344244440636775
249 249 1  0.0 6.541613228358203  3.024107165710019  8.238713301757953
250 250 1  0.0 2.5304283611671723  21.5558523346601  23.489308928315186
251 251 1  0.0 12.315757177132491  23.466751030895523  1.039521204453739
252 252 1  0.0 16.105530736477842  2.3084395848685686  16.474599942433745
253 253 1  0.0 19.613909143504866  2.2813098114550954  22.599372774309632
254 254 1  0.0 23.34601817185469  21.177017191937512  0.42750808869087276
255 255 1  0.0 22.90730662394713  14.961523953136776  4.314229725360533
256 256 1  0.0 16.09454174242665  18.35378159014746  18.48722540064032
257 257 1  0.0 14.929854755541704  4.865965663272495  9.927058202365771
258 258 1  0.0 20.103915923149955  20.455515821213034  8.46016013428683
259 259 1  0.0 19.606037607086606  20.550178136041083  18.733202431413947
260 260 1  0.0 17.184672142671282  3.9266581273547594  17.482453314765586
261 261 1  0.0 9.37380191629559  17.796492727057885  14.919816008065101
262 262 1  0.0 3.2541366641934633  21.33783260902686  7.95471416103894
263 263 1  0.0 5.1897808259996765  12.610065667297333  24.901873815857275
264 264 1  0.0 13.576028747163384  0.6045376560376625  15.564582896735077
265 265 1  0.0 20.600778269873345  8.889947525988138  8.447696623796034
266 266 1  0.0 23.8431875022228  24.26382161844527  14.700107214008856
267 267 1  0.0 22.196051295503935  4.022419843902042  6.800089405397442
268 268 1  0.0 9.123747896191048  21.909827401393397  22.43282456472195
269 269 1  0.0 14.940079784310111  3.071298291942676  20.640855029378518
270 270 1  0.0 7.91817378659134  14.168560457024903  20.190749486424316
271 271 1  0.0 0.015812137757667544  8.928010814077886  23.17107324212403
272 272 1  0.0 17.560877155298925  2.511885091022675  20.980133956963847
273 273 1  0.0 22.447765244113235  16.681785274290423  15.354254008205883
274 274 1  0.0 3.9437763146664864  16.402792396602088  2.672936350832131
275 275 1  0.0 0.3889384730918488  14.363890179209115  20.13638330003011
276 276 1  0.0 12.715819033244157  8.0386874514422  18.78243665351032
277 277 1  0.0 19.999520852061472  1.5797802924840065  15.017998980392477
278 278 1  0.0 5.533868985271057  17.06782188773437  6.049328829277767
279 279 1  0.0 9.327108946296914  17.476824683152113  12.481710878315507
280 280 1  0.0 7.429647934564748  11.560506301830372  20.403854007281936
281 281 1  0.0 23.670848341527545  17.283562721348282  3.4519337913103856
282 282 1  0.0 23.839880259430952  2.405757555658625  20.5406155258457
283 283 1  0.0 7.844208443730838  21.314363302285848  3.41315463302731
284 284 1  0.0 12.02506872939503  11.727302885045853  1.9042335325918507
285 285 1  0.0 16.301643122071948  17.488757230422312  20.648343434575082
286 286 1  0.0 23.58082757759368  1.454154462362528  5.136979335199338
287 287 1  0.0 4.867034864209055  24.85559441247428  0.46706805544090013
288 288 1  0.0 14.21314404658973  16.042573212818702  20.168704043095325
289 289 1  0.0 3.6429708062213795  24.984573269389482  9.350314394452742
290 290 1  0.0 0.40094406464575016  2.078144899336318  17.566554888916073
291 291 1  0.0 15.752840498043469  1.218697202839586  12.415622876291476
292 292 1  0.0 16.703447564871656  2.0922429208403703  16.720793601656432
293 293 1  0.0 4.481749619382044  9.721765714870292  23.309971639948316
294 294 1  0.0 4.810270348484108  6.831929339718745  20.404670908340062
295 295 1  0.0 10.40558633429381  24.32786130010908  19.2297083618129
296 296 1  0.0 13.039304016008815  16.31937217490409  15.887617056300405
297 297 1  0.0 8.231377304753076  1.8722956416024088  4.052019112745583
298 298 1  0.0 8.75855364586895  0.21973738291873324  21.85298078374114
299 299 1  0.0 2.147966629446216  7.93049319936916  22.729347955569416
300 300 1  0.0 20.421211175146503  10.006350995988269  3.765806458111662
301 301 1  0.0 1.3919547986501357  2.0574997155221015  9.016866820752655
302 302 1  0.0 1.4430813678711574  0.6471810794974581  14.0798480099279
303 303 1  0.0 5.142809124858361  21.624425682922976  2.205534128957773
304 304 1  0.0 7.2422280889770985  14.244336718212985  2.605503365408135
305 305 1  0.0 5.592202840814855  23.92175527960677  13.811881439956158
306 306 1  0.0 0.778912934312298  9.260320109456638  17.5751817668292
307 307 1  0.0 19.431720193415057  17.692592587291564  21.610006816688244
308 308 1  0.0 10.279443906010801  16.594321959524834  22.2648879163404
309 309 1  0.0 4.553449689807526  13.857890595757036  15.69516985121592
310 310 1  0.0 18.637657206620847  20.09086254950069  23.879633196909992
311 311 1  0.0 4.138029408302319  24.689281340887533  13.412529300956697
312 312 1  0.0 16.291107639944464  15.364751162951038  4.860785880702637
313 313 1  0.0 12.823232914365898  3.6310961656881133  12.786350497354773
314 314 1  0.0 20.20478280973115  14.285271855456367  3.8464647105071634
315 315 1  0.0 4.392830230537998  8.552328332104237  16.90989622661121
316 316 1  0.0 17.498715244604593  4.669168363443549  11.313438438125967
317 317 1  0.0 19.477289544541712  7.487619629173603  18.458966567109307
318 318 1  0.0 11.289048165205342  3.51111257112974  20.266890444624643
319 319 1  0.0 3.6990711426484664  0.46983915730154646  0.469761324601653
320 320 1  0.0 2.7643704839678067  14.467137039708927  22.835693282595468
321 321 1  0.0 3.6769170813298917  10.036092133753648  15.177461397161299
322 322 1  0.0 24.383655734628125  5.707823219980454  17.81734194555774
323 323 1  0.0 4.058189345998472  0.19956509961076008  5.554398141687134
324 324 1  0.0 11.24026119316048  6.693527265556246  24.663524690130316
325 325 1  0.0 24.1486272457458  3.999516778554599  2.62419540072682
326 326 1  0.0 18.35493695667475  3.606864194453591  15.730213182383432
327 327 1  0.0 4.195002155087119  11.248176169675569  11.612543070444865
328 328 1  0.0 12.56281687194587  2.4561257489949333  9.777109680350213
329 329 1  0.0 23.89583637982057  20.250995446647316  15.54223561023301
330 330 1  0.0 17.1638841166099  5.36493754811016  1.8891201230205767
331 331 1  0.0 4.757969866806999  20.820724319374555  14.021400023062808
332 332 1  0.0 23.240307069676014  24.495907294546857  18.525679673272155
333 333 1  0.0 23.00461894052073  8.723852476010741  10.2554906099992
334 334 1  0.0 0.9168242655475112  19.021075035352688  24.06777623760319
335 335 1  0.0 23.025734859163528  13.354685441633073  24.100330281463645
336 336 1  0.0 14.043486989787318  0.1453333068199142  24.748764476319582
337 337 1  0.0 2.010383962685991  8.243663582577529  24.285599156653266
338 338 1  0.0 4.082717381894699  10.763850880302869  24.2461351632247
339 339 1  0.0 16.659631292567845  0.7197515287269807  4.415026836098482
340 340 1  0.0 20.10953445923635  4.615563991568891  8.30165890392682
341 341 1  0.0 23.54819048487366  3.181005605719356  13.28998680607874
342 342 1  0.0 6.646394869594957  15.046185322736191  16.098400426838946
343 343 1  0.0 2.8074712174098764  8.032447116898384  5.580102947308271
344 344 1  0.0 21.671028156672378  5.483029325916656  22.256256660466516
345 345 1  0.0 10.363990044325217  6.089733259782965  21.251298603307955
346 346 1  0.0 4.4115738498949035  10.242430846103955  2.3236761667358468
347 347 1  0.0 15.983944690083355  20.092395620516378  4.771830888271728
348 348 1  0.0 4.734192228892681  15.700634495448561  1.576686691597204
349 349 1  0.0 19.207379590986047  21.19187902943326  12.432595708343522
350 350 1  0.0 19.14935410899957  23.675680416881274  7.028045935422081
351 351 1  0.0 14.612663070195223  22.88943422231095  6.460688216431357
352 352 1  0.0 7.589100883984711  16.324981753192812  3.320726310014699
353 353 1  0.0 10.579984539513667  18.494600991091474  8.622823886545895
354 354 1  0.0 1.222289268640392  16.542489987834323  8.216798326914049
355 355 1  0.0 11.85115880250796  21.783089644678356  0.52520395561301
356 356 1  0.0 14.985499161688717  8.33481973528222  3.751833482802916
357 357 1  0.0 13.030248989527413  16.006703436274076  4.344724283701861
358 358 1  0.0 16.48279819593781  10.792484984369228  5.743377302744826
359 359 1  0.0 16.15425119908977  22.20559890688197  15.303416418741092
360 360 1  0.0 13.39757964033189  10.091352981725576  5.456210010311469
361 361 1  0.0 7.9528952751365205  11.41938317131858  24.29486761795405
362 362 1  0.0 9.887523050405973  24.407705032985653  12.10302917146094
363 363 1  0.0 19.53161695466676  24.763749895780077  12.183647457861804
364 364 1  0.0 13.892388042797371  23.668076684410092  18.041222453205503
365 365 1  0.0 6.557579532154273  13.85369843449588  10.876332464905488
366 366 1  0.0 0.44303336875995414  2.854541727971846  13.731340522058302
367 367 1  0.0 8.679641929669343  0.028905216768163045  4.552221461558648
368 368 1  0.0 16.66717233612217  19.995345010856195  23.67834021940014
369 369 1  0.0 10.518218788571096  7.311440449447734  3.7372788264800727
370 370 1  0.0 14.830657617051882  3.784343868491083  7.502696123112535
371 371 1  0.0 11.788548239689167  20.304334166552152  20.15076936544402
372 372 1  0.0 10.319089570784787  12.242944351504232  4.01880396048406
373 373 1  0.0 2.194445262157241  6.4059690371626345  17.17158595330225
374 374 1  0.0 6.319999706159685  13.616082173313037  5.91920486245667
375 375 1  0.0 18.180690039728457  13.502536900800344  23.86907148460195
376 376 1  0.0 14.365633663143807  19.073394077114415  11.709315105497367
377 377 1  0.0 1.0498633351741449  16.618926869115633  23.376694050137637
378 378 1  0.0 11.063014751793007  8.247141338089751  16.512807323877706
379 379 1  0.0 15.574202445234537  19.400571896365562  16.88164835371875
380 380 1  0.0 7.713697120404489  2.218557492636783  1.4967160988465955
381 381 1  0.0 10.107678659156644  7.362595176787378  1.7692234642963434
382 382 1  0.0 20.123782058691514  16.30477367254822  19.46049690704393
383 383 1  0.0 8.994480482760746  17.021106139885756  9.537907502965359
384 384 1  0.0 24.737903622326023  3.981571750628893  6.143757922172574
385 385 1  0.0 24.2724803839023  8.018885107724735  16.547029433595124
386 386 1  0.0 5.5727622459389785  5.281630318841252  13.21748157446395
387 387 1  0.0 14.531386652027923  7.70472560563861  5.100261863538277
388 388 1  0.0 22.666428590898345  18.927300350352958  9.021995925203418
389 389 1  0.0 23.965634334625165  0.7336053821304284  20.110388174598135
390 390 1  0.0 22.886367689453778  7.698337268519961  0.47959352865863114
391 391 1  0.0 13.603180317128222  17.582772590443074  6.392186617517165
392 392 1  0.0 15.793917867491652  14.787041571301508  14.016635241592493
393 393 1  0.0 22.945667460015386  6.329071334384554  17.96178777634659
394 394 1  0.0 10.397946832993052  19.225615282458637  5.976678707183137
395 395 1  0.0 6.971213156145484  8.89667457157598  10.442572754147763
396 396 1  0.0 4.100792976212139  11.918409696944638  7.752152593800949
397 397 1  0.0 14.944310461368435  3.2294629578194316  16.336524134401202
398 398 1  0.0 21.625591227506916  10.37702306794884  7.981199461619751
399 399 1  0.0 6.758981589671459  21.38758055381463  9.854088341247946
400 400 1  0.0 20.199080584482786  18.64548004508052  4.02730462614379
401 401 1  0.0 22.077957754074497  3.011128946704811  24.118622359453493
402 402 1  0.0 2.2947598010547328  14.184248353175283  3.450932000665463
403 403 1  0.0 1.573573190144667  11.20085929408161  6.8020334803923745
404 404 1  0.0 8.845647981406266  19.879027554632234  9.440437849737213
405 405 1  0.0 1.8741196116921128  20.724741304435696  2.1969384335011277
406 406 1  0.0 13.721273006149048  5.663320125608936  9.136212530388605
407 407 1  0.0 21.06441173997269  15.616830989163837  12.550914616459846
408 408 1  0.0 14.604437231647763  8.97270895755935  2.993112620988275
409 409 1  0.0 12.07410471074098  7.295588512798254  2.1322990045029244
410 410 1  0.0 23.385991170578134  8.184696226356802  15.268884093940407
411 411 1  0.0 15.749903027932522  14.822282249561505  9.89202874892722
412 412 1  0.0 6.8361287321489215  6.722443532284844  2.8135887467060137
413 413 1  0.0 17.11649337349113  18.56389498306116  4.182299484435284