ITEM: TIMESTEP
0
ITEM: NUMBER OF ATOMS
10000
ITEM: BOX BOUNDS pp pp pp
0.000000 25.000000
0.000000 25.000000
0.000000 25.000000
ITEM: ATOMS id type mol x y z q
1 1 1  21.259167 14.057359 0.012214  0.000000
2 1 2  7.334705 15.734282 14.954626  0.000000
3 1 3  14.197611 11.063846 10.316306  0.000000
4 1 4  5.066363 2.982948 8.573287  0.000000
5 1 5  17.965340 16.085747 11.823943  0.000000
6 1 6  2.465493 2.786097 15.565750  0.000000
7 1 7  17.946751 7.927441 17.530165  0.000000
8 1 8  13.524946 24.911615 16.819189  0.000000
9 1 9  4.448033 18.378067 10.167051  0.000000
10 1 10  9.760356 24.096256 1.437411  0.000000
11 1 11  8.076101 10.823497 23.528175  0.000000
12 1 12  6.349075 4.232886 6.791023  0.000000
13 1 13  14.674899 6.940138 16.844524  0.000000
14 1 14  5.064266 22.360308 20.794350  0.000000
15 1 15  2.278001 5.122241 14.181495  0.000000
16 1 16  10.727207 1.748843 20.958298  0.000000
17 1 17  6.551384 3.854426 1.657426  0.000000
18 1 18  20.957521 22.979458 14.866246  0.000000
19 1 19  3.944061 20.844341 4.744346  0.000000
20 1 20  18.712652 23.577122 12.727815  0.000000
21 1 21  10.285571 2.052497 13.517927  0.000000
22 1 22  1.908875 11.361000 7.590805  0.000000
23 1 23  5.613032 16.029959 15.156579  0.000000
24 1 24  12.929245 15.732609 4.025746  0.000000
25 1 25  3.924003 2.262016 8.340458  0.000000
26 1 26  7.106935 16.929533 3.191177  0.000000
27 1 27  23.428024 17.624199 21.438194  0.000000
28 1 28  19.416327 18.549274 16.196587  0.000000
29 1 29  8.891802 16.720718 12.154710  0.000000
30 1 30  11.995340 4.086373 10.174355  0.000000
31 1 31  11.907982 10.420337 13.023759  0.000000
32 1 32  16.792845 15.973810 15.734413  0.000000
33 1 33  10.524961 12.284302 4.428466  0.000000
34 1 34  19.144672 9.120588 13.538991  0.000000
35 1 35  19.544855 5.061762 14.206286  0.000000
36 1 36  6.896094 17.915316 10.847710  0.000000
37 1 37  15.482873 5.524502 1.698888  0.000000
38 1 38  18.819815 0.192936 15.472191  0.000000
39 1 39  10.527570 8.806047 0.651893  0.000000
40 1 40  9.119889 10.995070 3.666749  0.000000
41 1 41  0.500849 3.963685 20.953934  0.000000
42 1 42  11.106672 12.891577 4.553638  0.000000
43 1 43  21.982616 6.994864 6.952389  0.000000
44 1 44  8.692933 0.101192 20.187243  0.000000
45 1 45  3.045727 9.286880 7.042933  0.000000
46 1 46  0.133383 10.916343 15.899721  0.000000
47 1 47  12.627178 22.191778 19.204374  0.000000
48 1 48  2.417949 21.937313 21.234932  0.000000
49 1 49  8.069238 7.266842 10.945872  0.000000
50 1 50  7.089952 8.727940 7.995240  0.000000
51 1 51  3.493363 12.498699 19.017740  0.000000
52 1 52  21.521555 24.228882 11.976678  0.000000
53 1 53  1.691283 19.049374 2.265758  0.000000
54 1 54  9.987759 0.777919 12.761999  0.000000
55 1 55  2.562350 1.367609 9.347388  0.000000
56 1 56  3.843690 0.918556 14.416842  0.000000
57 1 57  0.092914 8.323941 17.061634  0.000000
58 1 58  22.130617 12.648531 6.753825  0.000000
59 1 59  15.741892 20.820177 19.804525  0.000000
60 1 60  3.736207 13.308121 5.259674  0.000000
61 1 61  5.135673 16.028582 10.408505  0.000000
62 1 62  7.495852 20.600006 3.316497  0.000000
63 1 63  20.049297 17.390924 2.058394  0.000000
64 1 64  6.555403 5.950155 24.959152  0.000000
65 1 65  13.657216 14.512475 23.421612  0.000000
66 1 66  14.799853 22.923569 11.736369  0.000000
67 1 67  17.534113 21.391153 16.841879  0.000000
68 1 68  18.180857 16.324572 15.356545  0.000000
69 1 69  12.920877 5.541869 19.621847  0.000000
70 1 70  17.516003 6.590646 19.842461  0.000000
71 1 71  12.060657 2.820696 13.541172  0.000000
72 1 72  24.432281 7.866381 4.764234  0.000000
73 1 73  0.892073 24.731079 24.914398  0.000000
74 1 74  5.361670 14.574866 18.800152  0.000000
75 1 75  18.026537 10.362246 16.035534  0.000000
76 1 76  22.258678 1.775982 0.299078  0.000000
77 1 77  8.631936 23.875042 21.199078  0.000000
78 1 78  3.350047 17.606848 22.488283  0.000000
79 1 79  14.125431 2.815746 19.937225  0.000000
80 1 80  15.050505 6.995410 14.964341  0.000000
81 1 81  16.889753 4.378716 22.617744  0.000000
82 1 82  22.892000 24.493034 3.232020  0.000000
83 1 83  1.059911 11.650333 13.552482  0.000000
84 1 84  10.974435 24.470684 22.254833  0.000000
85 1 85  0.503841 13.416731 11.289475  0.000000
86 1 86  23.245087 1.267107 11.745243  0.000000
87 1 87  18.910395 2.043373 23.969322  0.000000
88 1 88  19.049520 0.773779 17.352577  0.000000
89 1 89  17.358868 13.997378 13.801624  0.000000
90 1 90  13.201827 24.599646 20.122923  0.000000
91 1 91  6.040090 16.238899 11.543939  0.000000
92 1 92  22.365271 0.542674 22.117287  0.000000
93 1 93  6.652182 8.675579 3.590191  0.000000
94 1 94  12.808888 8.053275 16.448963  0.000000
95 1 95  3.259841 9.771015 22.611708  0.000000
96 1 96  21.289253 3.089695 13.464934  0.000000
97 1 97  18.421696 21.470495 0.316587  0.000000
98 1 98  23.454531 12.454625 15.208740  0.000000
99 1 99  14.092551 24.205412 5.930362  0.000000
100 1 100  15.237180 7.708830 20.008583  0.000000
101 1 101  0.882562 9.970436 19.594311  0.000000
102 1 102  6.569971 0.871555 21.238121  0.000000
103 1 103  22.527477 20.191353 2.141857  0.000000
104 1 104  18.414015 22.183889 20.144400  0.000000
105 1 105  16.105902 21.500700 16.694473  0.000000
106 1 106  20.267736 15.303136 10.194312  0.000000
107 1 107  21.321615 11.010046 14.589619  0.000000
108 1 108  9.662098 4.038163 20.997732  0.000000
109 1 109  6.779529 6.861405 21.327772  0.000000
110 1 110  24.750120 11.112110 18.183208  0.000000
111 1 111  6.958508 23.148163 17.736374  0.000000
112 1 112  17.828081 8.118977 21.597738  0.000000
113 1 113  20.104454 11.363407 6.163884  0.000000
114 1 114  17.959690 16.093517 6.747461  0.000000
115 1 115  21.793776 5.882680 16.520605  0.000000
116 1 116  24.902996 2.335522 10.701229  0.000000
117 1 117  20.747576 6.321897 3.817365  0.000000
118 1 118  3.885221 0.522247 15.500426  0.000000
119 1 119  17.812933 3.107055 5.944661  0.000000
120 1 120  19.162762 1.551247 24.920805  0.000000
121 1 121  23.579193 7.760198 14.924056  0.000000
122 1 122  16.542038 17.097584 19.867178  0.000000
123 1 123  23.808649 5.004701 8.889845  0.000000
124 1 124  8.703586 20.930138 16.565632  0.000000
125 1 125  16.096571 9.671460 14.655600  0.000000
126 1 126  16.178053 20.931219 19.418957  0.000000
127 1 127  14.773026 4.333900 9.693071  0.000000
128 1 128  15.258170 16.519495 3.330600  0.000000
129 1 129  16.541718 13.988150 12.430200  0.000000
130 1 130  19.554302 24.999851 16.400534  0.000000
131 1 131  9.590680 7.326764 3.333534  0.000000
132 1 132  24.765329 15.529689 20.813042  0.000000
133 1 133  11.686824 6.145372 12.012025  0.000000
134 1 134  0.229365 15.271328 3.122891  0.000000
135 1 135  5.832126 1.435637 14.612265  0.000000
136 1 136  2.803653 19.018948 20.013580  0.000000
137 1 137  1.553262 10.452497 3.142398  0.000000
138 1 138  10.080234 7.618426 14.748109  0.000000
139 1 139  13.755486 16.612587 15.701802  0.000000
140 1 140  0.050306 4.804571 18.205847  0.000000
141 1 141  23.155560 6.490208 5.553714  0.000000
142 1 142  1.303162 7.442885 5.214931  0.000000
143 1 143  7.840502 24.547112 24.983273  0.000000
144 1 144  18.252520 11.784995 5.590046  0.000000
145 1 145  16.178467 8.834873 7.230650  0.000000
146 1 146  6.795935 21.388346 17.671871  0.000000
147 1 147  17.644407 22.277195 4.872403  0.000000
148 1 148  20.832018 19.101089 3.670442  0.000000
149 1 149  8.364796 18.619333 11.542497  0.000000
150 1 150  11.599431 20.603630 20.192789  0.000000
151 1 151  0.825090 22.879784 15.801984  0.000000
152 1 152  22.555433 8.942385 20.443968  0.000000
153 1 153  16.204554 19.048037 4.119386  0.000000
154 1 154  7.325706 1.694821 14.809649  0.000000
155 1 155  3.090184 19.036583 20.988661  0.000000
156 1 156  23.246695 5.338931 14.012727  0.000000
157 1 157  9.283568 0.775500 1.495799  0.000000
158 1 158  3.330910 9.065632 7.426868  0.000000
159 1 159  2.123286 11.120652 16.682537  0.000000
160 1 160  24.302435 4.959376 11.678367  0.000000
161 1 161  1.641249 13.188881 2.555157  0.000000
162 1 162  2.215294 2.652348 22.269896  0.000000
163 1 163  17.276516 19.196505 9.405529  0.000000
164 1 164  2.879472 8.185875 23.273319  0.000000
165 1 165  4.621548 6.097969 24.053322  0.000000
166 1 166  14.228253 24.522091 1.921397  0.000000
167 1 167  4.425064 1.652079 11.181345  0.000000
168 1 168  4.630538 8.025853 12.806305  0.000000
169 1 169  10.108479 21.745979 4.553678  0.000000
170 1 170  19.138004 19.651855 16.245584  0.000000
171 1 171  0.783424 9.870344 23.576935  0.000000
172 1 172  22.235281 16.084192 14.628526  0.000000
173 1 173  3.547472 22.799274 7.248144  0.000000
174 1 174  20.853039 2.566385 13.281577  0.000000
175 1 175  23.642065 19.372955 20.317646  0.000000
176 1 176  22.976675 5.808483 0.913280  0.000000
177 1 177  21.104334 12.647141 1.950128  0.000000
178 1 178  18.945436 6.970191 22.165312  0.000000
179 1 179  4.182041 0.347937 12.483826  0.000000
180 1 180  0.317120 8.066775 6.185051  0.000000
181 1 181  17.528803 1.102319 8.009505  0.000000
182 1 182  7.697711 1.894146 1.818761  0.000000
183 1 183  8.828600 7.899395 3.517463  0.000000
184 1 184  16.805355 2.686344 5.518295  0.000000
185 1 185  1.363174 3.860557 3.403462  0.000000
186 1 186  9.904510 5.174837 6.362077  0.000000
187 1 187  2.371165 3.083033 1.822204  0.000000
188 1 188  14.740590 8.679565 18.474512  0.000000
189 1 189  17.964262 10.209250 13.350592  0.000000
190 1 190  20.664448 0.611037 6.744152  0.000000
191 1 191  19.864168 24.196135 8.109220  0.000000
192 1 192  18.523954 6.782766 21.246695  0.000000
193 1 193  8.289758 18.352209 2.453762  0.000000
194 1 194  23.280775 16.356480 7.987414  0.000000
195 1 195  11.931279 15.693504 24.005775  0.000000
196 1 196  6.329488 17.578203 8.926933  0.000000
197 1 197  5.847889 3.351743 21.204227  0.000000
198 1 198  7.294481 5.205305 24.397532  0.000000
199 1 199  0.204695 21.343256 24.251343  0.000000
200 1 200  13.529535 7.815375 22.543259  0.000000
201 1 201  4.092466 4.242345 10.812510  0.000000
202 1 202  21.038094 7.414830 24.856911  0.000000
203 1 203  15.973225 24.428789 12.655156  0.000000
204 1 204  22.360632 15.871378 1.526635  0.000000
205 1 205  0.440973 4.091495 11.863733  0.000000
206 1 206  18.286093 14.086830 18.794041  0.000000
207 1 207  10.836742 16.722275 24.814636  0.000000
208 1 208  23.139755 16.494734 4.946473  0.000000
209 1 209  7.207716 12.593740 22.127592  0.000000
210 1 210  7.660353 20.172493 0.769719  0.000000
211 1 211  7.717871 14.731616 23.111128  0.000000
212 1 212  4.501470 17.933237 2.523469  0.000000
213 1 213  22.752808 4.676521 11.781590  0.000000
214 1 214  8.657497 4.050588 0.903918  0.000000
215 1 215  0.769618 11.433460 11.198872  0.000000
216 1 216  23.142456 22.825188 20.157211  0.000000
217 1 217  1.239205 0.507160 0.170389  0.000000
218 1 218  0.462237 6.885893 14.876790  0.000000
219 1 219  12.231885 20.023832 21.942261  0.000000
220 1 220  7.429587 15.452506 7.614563  0.000000
221 1 221  1.206895 7.763300 0.025877  0.000000
222 1 222  21.976204 8.543037 9.924617  0.000000
223 1 223  21.433142 19.106255 21.629839  0.000000
224 1 224  23.097620 9.183467 15.173333  0.000000
225 1 225  13.086790 3.622361 1.146055  0.000000
226 1 226  18.122938 4.065488 17.281073  0.000000
227 1 227  8.309015 24.044886 16.611080  0.000000
228 1 228  17.709372 14.586787 7.191561  0.000000
229 1 229  22.573668 18.020079 23.752230  0.000000
230 1 230  1.244643 24.924164 0.164374  0.000000
231 1 231  14.882156 18.121822 4.676208  0.000000
232 1 232  11.718035 15.965280 5.567625  0.000000
233 1 233  19.269428 12.219219 22.226521  0.000000
234 1 234  1.841027 22.088118 9.510658  0.000000
235 1 235  10.065834 15.537905 19.120438  0.000000
236 1 236  21.376963 12.578996 3.213689  0.000000
237 1 237  15.543377 9.795408 18.891672  0.000000
238 1 238  21.129642 3.353727 3.634064  0.000000
239 1 239  6.984281 10.327281 5.244205  0.000000
240 1 240  4.095475 14.391978 7.932817  0.000000
241 1 241  13.846964 11.720222 2.881553  0.000000
242 1 242  21.880695 17.037504 11.065562  0.000000
243 1 243  15.447873 5.220225 20.056498  0.000000
244 1 244  23.381996 11.704988 4.369552  0.000000
245 1 245  1.566857 2.578747 9.530874  0.000000
246 1 246  10.240805 17.428997 13.272031  0.000000
247 1 247  19.839794 16.550413 10.234459  0.000000
248 1 248  15.595566 23.763111 16.344244  0.000000
249 1 249  6.541613 3.024107 8.238713  0.000000
250 1 250  2.530428 21.555853 23.489309  0.000000
251 1 251  12.315757 23.466751 1.039521  0.000000
252 1 252  16.105530 2.308439 16.474600  0.000000
253 1 253  19.613909 2.281310 22.599373  0.000000
254 1 254  23.346018 21.177017 0.427508  0.000000
255 1 255  22.907307 14.961524 4.314229  0.000000
256 1 256  16.094542 18.353781 18.487225  0.000000
257 1 257  14.929854 4.865966 9.927058  0.000000
258 1 258  20.103916 20.455515 8.460160  0.000000
259 1 259  19.606037 20.550179 18.733202  0.000000
260 1 260  17.184671 3.926658 17.482452  0.000000
261 1 261  9.373802 17.796494 14.919816  0.000000
262 1 262  3.254137 21.337833 7.954714  0.000000
263 1 263  5.189781 12.610065 24.901875  0.000000
264 1 264  13.576029 0.604538 15.564583  0.000000
265 1 265  20.600779 8.889948 8.447697  0.000000
266 1 266  23.843187 24.263823 14.700108  0.000000
267 1 267  22.196051 4.022420 6.800089  0.000000
268 1 268  9.123748 21.909828 22.432825  0.000000
269 1 269  14.940080 3.071298 20.640856  0.000000
270 1 270  7.918174 14.168560 20.190750  0.000000
271 1 271  0.015812 8.928011 23.171074  0.000000
272 1 272  17.560877 2.511885 20.980133  0.000000
273 1 273  22.447765 16.681786 15.354254  0.000000
274 1 274  3.943776 16.402792 2.672936  0.000000
275 1 275  0.388938 14.363891 20.136383  0.000000
276 1 276  12.715819 8.038688 18.782436  0.000000
277 1 277  19.999521 1.579780 15.017999  0.000000
278 1 278  5.533869 17.067822 6.049329  0.000000
279 1 279  9.327109 17.476824 12.481710  0.000000
280 1 280  7.429648 11.560506 20.403854  0.000000
281 1 281  23.670849 17.283564 3.451934  0.000000
282 1 282  23.839880 2.405758 20.540615  0.000000
283 1 283  7.844208 21.314363 3.413155  0.000000
284 1 284  12.025068 11.727303 1.904234  0.000000
285 1 285  16.301643 17.488758 20.648344  0.000000
286 1 286  23.580828 1.454154 5.136979  0.000000
287 1 287  4.867035 24.855595 0.467068  0.000000
288 1 288  14.213144 16.042574 20.168705  0.000000
289 1 289  3.642971 24.984573 9.350314  0.000000
290 1 290  0.400944 2.078145 17.566555  0.000000
291 1 291  15.752840 1.218697 12.415623  0.000000
292 1 292  16.703447 2.092243 16.720793  0.000000
293 1 293  4.481750 9.721766 23.309971  0.000000
294 1 294  4.810270 6.831929 20.404671  0.000000
295 1 295  10.405586 24.327862 19.229708  0.000000
296 1 296  13.039304 16.319372 15.887617  0.000000
297 1 297  8.231378 1.872296 4.052019  0.000000
298 1 298  8.758554 0.219737 21.852982  0.000000
299 1 299  2.147967 7.930493 22.729347  0.000000
300 1 300  20.421211 10.006351 3.765806  0.000000
301 1 301  1.391955 2.057500 9.016867  0.000000
302 1 302  1.443081 0.647181 14.079848  0.000000
303 1 303  5.142809 21.624426 2.205534  0.000000
304 1 304  7.242228 14.244337 2.605503  0.000000
305 1 305  5.592203 23.921755 13.811881  0.000000
306 1 306  0.778913 9.260320 17.575182  0.000000
307 1 307  19.431721 17.692593 21.610006  0.000000
308 1 308  10.279444 16.594322 22.264889  0.000000
309 1 309  4.553450 13.857890 15.695169  0.000000
310 1 310  18.637657 20.090862 23.879633  0.000000
311 1 311  4.138030 24.689281 13.412529  0.000000
312 1 312  16.291107 15.364751 4.860786  0.000000
313 1 313  12.823233 3.631096 12.786350  0.000000
314 1 314  20.204782 14.285272 3.846465  0.000000
315 1 315  4.392830 8.552328 16.909897  0.000000
316 1 316  17.498714 4.669168 11.313438  0.000000
317 1 317  19.477289 7.487619 18.458967  0.000000
318 1 318  11.289048 3.511113 20.266890  0.000000
319 1 319  3.699071 0.469839 0.469761  0.000000
320 1 320  2.764370 14.467137 22.835693  0.000000
321 1 321  3.676917 10.036092 15.177462  0.000000
322 1 322  24.383656 5.707823 17.817343  0.000000
323 1 323  4.058189 0.199565 5.554398  0.000000
324 1 324  11.240261 6.693527 24.663525  0.000000
325 1 325  24.148626 3.999517 2.624195  0.000000
326 1 326  18.354937 3.606864 15.730213  0.000000
327 1 327  4.195002 11.248177 11.612543  0.000000
328 1 328  12.562817 2.456126 9.777110  0.000000
329 1 329  23.895836 20.250996 15.542235  0.000000
330 1 330  17.163883 5.364938 1.889120  0.000000
331 1 331  4.757970 20.820724 14.021400  0.000000
332 1 332  23.240307 24.495907 18.525681  0.000000
333 1 333  23.004620 8.723852 10.255490  0.000000
334 1 334  0.916824 19.021074 24.067776  0.000000
335 1 335  23.025734 13.354686 24.100330  0.000000
336 1 336  14.043487 0.145333 24.748764  0.000000
337 1 337  2.010384 8.243664 24.285599  0.000000
338 1 338  4.082717 10.763851 24.246136  0.000000
339 1 339  16.659632 0.719752 4.415027  0.000000
340 1 340  20.109535 4.615564 8.301659  0.000000
341 1 341  23.548191 3.181006 13.289987  0.000000
342 1 342  6.646395 15.046185 16.098400  0.000000
343 1 343  2.807471 8.032447 5.580103  0.000000
344 1 344  21.671028 5.483029 22.256256  0.000000
345 1 345  10.363990 6.089733 21.251299  0.000000
346 1 346  4.411574 10.242431 2.323676  0.000000
347 1 347  15.983945 20.092396 4.771831  0.000000
348 1 348  4.734192 15.700635 1.576687  0.000000
349 1 349  19.207380 21.191879 12.432595  0.000000
350 1 350  19.149355 23.675680 7.028046  0.000000
351 1 351  14.612663 22.889435 6.460688  0.000000
352 1 352  7.589101 16.324982 3.320726  0.000000
353 1 353  10.579985 18.494600 8.622824  0.000000
354 1 354  1.222289 16.542490 8.216799  0.000000
355 1 355  11.851159 21.783091 0.525204  0.000000
356 1 356  14.985499 8.334820 3.751833  0.000000
357 1 357  13.030249 16.006704 4.344724  0.000000
358 1 358  16.482798 10.792485 5.743377  0.000000
359 1 359  16.154251 22.205599 15.303416  0.000000
360 1 360  13.397579 10.091353 5.456210  0.000000
361 1 361  7.952895 11.419383 24.294868  0.000000
362 1 362  9.887523 24.407705 12.103029  0.000000
363 1 363  19.531616 24.763750 12.183647  0.000000
364 1 364  13.892388 23.668077 18.041222  0.000000
365 1 365  6.557580 13.853699 10.876332  0.000000
366 1 366  0.443033 2.854542 13.731340  0.000000
367 1 367  8.679642 0.028905 4.552221  0.000000
368 1 368  16.667171 19.995344 23.678341  0.000000
369 1 369  10.518219 7.311440 3.737279  0.000000
370 1 370  14.830658 3.784344 7.502696  0.000000
371 1 371  11.788548 20.304335 20.150770  0.000000
372 1 372  10.319090 12.242945 4.018804  0.000000
373 1 373  2.194445 6.405969 17.171585  0.000000
374 1 374  6.320000 13.616082 5.919205  0.000000
375 1 375  18.180691 13.502537 23.869072  0.000000
376 1 376  14.365634 19.073395 11.709315  0.000000
377 1 377  1.049863 16.618927 23.376694  0.000000
378 1 378  11.063015 8.247141 16.512808  0.000000
379 1 379  15.574203 19.400572 16.881649  0.000000
380 1 380  7.713697 2.218558 1.496716  0.000000
381 1 381  10.107678 7.362595 1.769223  0.000000
382 1 382  20.123781 16.304773 19.460497  0.000000
383 1 383  8.994480 17.021107 9.537908  0.000000
384 1 384  24.737904 3.981572 6.143758  0.000000
385 1 385  24.272480 8.018885 16.547029  0.000000
386 1 386  5.572762 5.281631 13.217482  0.000000
387 1 387  14.531386 7.704726 5.100262  0.000000
388 1 388  22.666430 18.927299 9.021996  0.000000
389 1 389  23.965633 0.733605 20.110388  0.000000
390 1 390  22.886368 7.698337 0.479594  0.000000
391 1 391  13.603180 17.582773 6.392187  0.000000
392 1 392  15.793918 14.787042 14.016635  0.000000
393 1 393  22.945667 6.329072 17.961788  0.000000
394 1 394  10.397946 19.225615 5.976679  0.000000
395 1 395  6.971213 8.896674 10.442573  0.000000
396 1 396  4.100793 11.918409 7.752152  0.000000
397 1 397  14.944310 3.229463 16.336525  0.000000
398 1 398  21.625591 10.377023 7.981199  0.000000
399 1 399  6.758982 21.387581 9.854089  0.000000
400 1 400  20.199081 18.645479 4.027305  0.000000
401 1 401  22.077957 3.011129 24.118622  0.000000
402 1 402  2.294760 14.184248 3.450932  0.000000
403 1 403  1.573573 11.200859 6.802033  0.000000
404 1 404  8.845648 19.879028 9.440438  0.000000
405 1 405  1.874120 20.724741 2.196939  0.000000
406 1 406  13.721273 5.663320 9.136212  0.000000
407 1 407  21.064411 15.616831 12.550915  0.000000
408 1 408  14.604437 8.972709 2.993113  0.000000
409 1 409  12.074104 7.295588 2.132299  0.000000
410 1 410  23.385992 8.184696 15.268884  0.000000
411 1 411  15.749903 14.822282 9.892029  0.000000
412 1 412  6.836129 6.722444 2.813589  0.000000
413 1 413  17.116493 18.563894 4.182300  0.000000
414 1 414  3.238539 6.191998 14.121449  0.000000
415 1 415  22.123964 19.789930 17.505814  0.000000
416 1 416  15.609316 19.655540 5.105184  0.000000
417 1 417  23.947544 22.782873 21.149090  0.000000
418 1 418  19.203577 20.093287 11.234848  0.000000
419 1 419  23.512251 19.254784 5.499452  0.000000
420 1 420  17.667444 23.609697 16.238953  0.000000
421 1 421  4.706029 21.946205 4.808136  0.000000
422 1 422  10.409325 18.111788 14.504937  0.000000
423 1 423  4.445450 1.182000 15.788923  0.000000
424 1 424  10.091787 14.675042 17.028728  0.000000
425 1 425  2.724197 16.315407 22.905262  0.000000
426 1 426  1.188352 5.341877 10.126426  0.000000
427 1 427  7.436159 10.645719 11.502748  0.000000
428 1 428  24.885700 3.259472 21.576918  0.000000
429 1 429  4.720596 22.520149 10.508780  0.000000
430 1 430  16.810581 22.301392 6.426987  0.000000
431 1 431  0.691918 2.745660 16.255020  0.000000
432 1 432  19.002106 0.247698 8.783411  0.000000
433 1 433  21.596111 4.601258 18.611235  0.000000
434 1 434  15.981293 2.474071 13.645683  0.000000
435 1 435  20.787407 20.783272 18.155338  0.000000
436 1 436  14.611661 16.402096 9.783617  0.000000
437 1 437  20.107632 20.103691 13.395256  0.000000
438 1 438  24.175934 12.863961 13.945434  0.000000
439 1 439  23.459038 20.053793 14.102122  0.000000
440 1 440  18.839537 13.616078 6.435184  0.000000
441 1 441  0.560273 7.667329 24.149153  0.000000
442 1 442  8.660300 5.665926 15.884575  0.000000
443 1 443  5.647445 13.196505 9.735128  0.000000
444 1 444  12.306580 14.990070 3.014840  0.000000
445 1 445  21.838472 12.821673 6.443030  0.000000
446 1 446  10.081214 18.653736 7.221174  0.000000
447 1 447  6.183579 3.205106 4.211370  0.000000
448 1 448  18.862394 3.355802 16.898293  0.000000
449 1 449  10.864125 0.801487 3.629184  0.000000
450 1 450  5.821398 11.215298 17.221994  0.000000
451 1 451  11.417987 16.893915 12.045002  0.000000
452 1 452  22.851707 22.089582 19.645695  0.000000
453 1 453  4.189266 10.604767 19.016390  0.000000
454 1 454  16.163742 19.761652 11.798880  0.000000
455 1 455  7.693154 6.395652 6.337580  0.000000
456 1 456  2.501005 24.235058 24.520634  0.000000
457 1 457  14.873506 7.293091 13.390668  0.000000
458 1 458  20.868277 5.693245 17.045811  0.000000
459 1 459  23.918606 5.279161 18.665518  0.000000
460 1 460  8.633683 14.113369 18.952997  0.000000
461 1 461  5.234066 20.457352 8.939604  0.000000
462 1 462  3.829756 23.798456 9.789484  0.000000
463 1 463  7.510775 18.126282 5.497043  0.000000
464 1 464  5.564193 11.839393 13.174955  0.000000
465 1 465  9.861827 7.197290 20.829832  0.000000
466 1 466  3.298980 16.321735 10.489299  0.000000
467 1 467  8.388810 19.977556 21.589430  0.000000
468 1 468  6.453187 16.914186 22.740776  0.000000
469 1 469  4.929087 12.251195 15.249077  0.000000
470 1 470  13.600329 13.362247 5.471888  0.000000
471 1 471  20.561897 7.626438 15.063457  0.000000
472 1 472  7.739384 9.455183 17.221310  0.000000
473 1 473  4.031409 11.440278 19.763926  0.000000
474 1 474  23.904161 4.580013 8.256801  0.000000
475 1 475  22.111689 19.121372 22.589005  0.000000
476 1 476  13.473622 16.617849 13.464437  0.000000
477 1 477  21.823408 3.647635 21.326702  0.000000
478 1 478  20.253136 11.322325 15.482684  0.000000
479 1 479  7.484302 14.779799 9.277432  0.000000
480 1 480  22.817078 16.767370 9.855248  0.000000
481 1 481  6.716287 7.609651 18.344017  0.000000
482 1 482  5.666823 18.522949 22.855930  0.000000
483 1 483  3.992532 7.052255 23.756037  0.000000
484 1 484  3.101280 6.036325 15.685575  0.000000
485 1 485  18.972498 22.656816 20.575937  0.000000
486 1 486  10.674285 5.196944 1.300159  0.000000
487 1 487  21.770638 2.422153 10.051000  0.000000
488 1 488  0.874899 3.416239 21.023514  0.000000
489 1 489  10.870169 5.616334 19.939205  0.000000
490 1 490  19.825352 20.420927 20.900057  0.000000
491 1 491  21.027500 19.079203 4.449437  0.000000
492 1 492  4.898316 22.798399 5.193336  0.000000
493 1 493  12.316783 5.553783 3.277710  0.000000
494 1 494  4.892277 15.976252 4.139878  0.000000
495 1 495  22.591597 20.451357 5.399886  0.000000
496 1 496  10.018702 9.718804 7.813415  0.000000
497 1 497  11.912017 23.994673 24.160521  0.000000
498 1 498  21.796438 20.946205 13.390650  0.000000
499 1 499  18.393438 21.266298 0.588041  0.000000
500 1 500  6.164126 5.417012 14.936737  0.000000
501 1 501  23.608820 3.615954 15.538092  0.000000
502 1 502  11.717962 13.530849 4.012119  0.000000
503 1 503  9.840410 1.133630 12.719971  0.000000
504 1 504  13.252526 21.450432 15.151076  0.000000
505 1 505  10.973286 19.922640 17.236206  0.000000
506 1 506  10.781270 24.322523 3.460747  0.000000
507 1 507  7.514231 10.410053 5.284779  0.000000
508 1 508  8.055135 5.124289 20.156990  0.000000
509 1 509  21.824732 6.670039 20.607103  0.000000
510 1 510  11.888159 20.314981 8.835750  0.000000
511 1 511  2.725874 20.155737 21.513287  0.000000
512 1 512  24.917084 24.730135 6.605894  0.000000
513 1 513  21.474663 9.230889 6.927236  0.000000
514 1 514  10.784893 19.043577 13.530017  0.000000
515 1 515  5.407703 12.515771 19.039553  0.000000
516 1 516  16.635118 9.246154 8.484282  0.000000
517 1 517  6.505725 2.795546 15.072432  0.000000
518 1 518  21.194323 10.279508 8.588735  0.000000
519 1 519  10.561940 10.857985 9.926872  0.000000
520 1 520  20.088158 23.026106 12.255966  0.000000
521 1 521  3.170569 5.038518 19.207802  0.000000
522 1 522  10.247677 22.187973 4.114922  0.000000
523 1 523  19.295156 15.090931 9.832940  0.000000
524 1 524  12.586125 1.945035 15.572124  0.000000
525 1 525  5.734375 16.921730 17.245455  0.000000
526 1 526  7.357565 0.833074 1.852664  0.000000
527 1 527  1.844005 18.062542 18.967361  0.000000
528 1 528  23.097767 13.449808 24.249550  0.000000
529 1 529  24.440754 2.327936 24.090708  0.000000
530 1 530  10.129731 18.831211 24.666691  0.000000
531 1 531  1.594767 5.430011 5.593410  0.000000
532 1 532  14.954199 18.944826 15.700830  0.000000
533 1 533  19.193096 12.649735 11.516802  0.000000
534 1 534  13.174052 6.679359 12.125286  0.000000
535 1 535  4.054387 8.305501 15.643385  0.000000
536 1 536  15.979259 22.585762 0.492918  0.000000
537 1 537  10.600535 19.489861 13.620596  0.000000
538 1 538  22.575884 19.948280 0.395287  0.000000
539 1 539  12.720737 19.889647 8.016570  0.000000
540 1 540  24.017927 14.630278 18.923897  0.000000
541 1 541  11.404051 5.694020 8.377978  0.000000
542 1 542  18.077784 23.916042 9.319846  0.000000
543 1 543  11.934249 13.808251 22.682022  0.000000
544 1 544  4.137366 5.937149 16.469845  0.000000
545 1 545  15.315498 20.236025 11.910610  0.000000
546 1 546  15.296802 6.934109 19.998405  0.000000
547 1 547  3.712178 14.729225 18.738960  0.000000
548 1 548  7.481271 5.604967 9.214901  0.000000
549 1 549  11.314664 23.848251 17.348803  0.000000
550 1 550  17.463076 15.520645 14.810116  0.000000
551 1 551  12.299353 6.096262 19.202345  0.000000
552 1 552  19.945398 13.592782 15.175055  0.000000
553 1 553  21.874445 16.724957 17.148827  0.000000
554 1 554  2.246812 7.583555 17.693018  0.000000
555 1 555  10.129704 20.306894 19.362288  0.000000
556 1 556  20.154247 23.189838 0.136253  0.000000
557 1 557  2.025599 4.309386 4.953714  0.000000
558 1 558  6.521032 10.902113 17.891924  0.000000
559 1 559  0.201901 13.911087 0.085367  0.000000
560 1 560  15.665466 24.253599 5.632504  0.000000
561 1 561  20.989376 22.179516 23.026501  0.000000
562 1 562  19.438118 22.071585 7.959221  0.000000
563 1 563  24.128326 7.309598 17.076658  0.000000
564 1 564  3.006073 15.276122 13.418615  0.000000
565 1 565  21.508104 7.457288 18.860952  0.000000
566 1 566  16.485739 3.972329 24.314976  0.000000
567 1 567  9.214832 8.310899 24.519491  0.000000
568 1 568  24.127769 22.696573 15.884996  0.000000
569 1 569  14.306016 4.839214 14.300271  0.000000
570 1 570  7.019996 17.595814 15.544465  0.000000
571 1 571  13.749294 21.779783 22.767015  0.000000
572 1 572  5.355852 14.279925 11.099123  0.000000
573 1 573  7.873274 3.082009 23.632856  0.000000
574 1 574  2.021339 19.758087 0.673454  0.000000
575 1 575  2.358926 10.130885 19.518656  0.000000
576 1 576  1.518424 11.191360 8.371767  0.000000
577 1 577  18.163589 24.106571 9.675991  0.000000
578 1 578  9.124921 6.323705 7.881164  0.000000
579 1 579  1.919502 14.996967 22.332037  0.000000
580 1 580  14.824335 19.638990 9.592900  0.000000
581 1 581  16.727127 16.311354 21.205807  0.000000
582 1 582  22.995535 19.809402 7.134679  0.000000
583 1 583  6.522798 24.425817 20.775637  0.000000
584 1 584  13.540216 8.107530 5.637660  0.000000
585 1 585  12.813037 4.180448 19.731325  0.000000
586 1 586  20.608849 16.343918 8.962288  0.000000
587 1 587  16.332153 11.872636 5.377937  0.000000
588 1 588  2.014569 20.076996 11.962245  0.000000
589 1 589  9.206712 21.458481 12.926102  0.000000
590 1 590  22.090603 21.314720 4.759837  0.000000
591 1 591  19.467508 3.582664 21.404217  0.000000
592 1 592  1.119699 2.431531 15.586765  0.000000
593 1 593  20.279005 23.430904 14.058706  0.000000
594 1 594  24.973583 19.594482 13.453205  0.000000
595 1 595  6.686543 8.752978 14.362372  0.000000
596 1 596  2.084763 23.972345 23.649548  0.000000
597 1 597  15.815200 7.693575 6.150118  0.000000
598 1 598  11.352411 16.083429 13.664029  0.000000
599 1 599  11.035560 1.767636 19.099401  0.000000
600 1 600  9.816502 8.134936 7.265840  0.000000
601 1 601  6.032330 23.832743 15.468369  0.000000
602 1 602  13.154551 10.934164 5.685654  0.000000
603 1 603  4.292951 6.670415 7.368439  0.000000