ITEM: TIMESTEP
0
ITEM: NUMBER OF ATOMS
2000
ITEM: BOX BOUNDS pp pp pp
0.000000 10.000000
0.000000 10.000000
0.000000 10.000000
ITEM: ATOMS id type mol x y z q
1 1 1  9.592860 9.297227 4.129459  0.000000
2 1 2  9.593778 8.966496 3.192702  0.000000
3 1 3  4.230598 2.089122 4.382928  0.000000
4 1 4  8.913713 3.054141 5.348760  0.000000
5 1 5  2.982720 2.891224 0.783684  0.000000
6 1 6  6.280049 3.843556 0.903574  0.000000
7 1 7  8.467883 6.895200 0.861457  0.000000
8 1 8  0.149312 8.221040 9.012391  0.000000
9 1 9  2.230805 7.864812 3.764810  0.000000
10 1 10  2.942750 3.427202 3.027416  0.000000
11 1 11  0.557743 5.517762 3.022149  0.000000
12 1 12  7.906557 2.260957 1.639627  0.000000
13 1 13  4.597309 4.596894 2.932367  0.000000
14 1 14  8.847144 2.367625 7.252606  0.000000
15 1 15  6.987195 5.198336 3.264835  0.000000
16 1 16  6.178175 5.505066 4.884089  0.000000
17 1 17  3.669268 8.669797 1.610695  0.000000
18 1 18  9.221978 6.608941 3.088491  0.000000
19 1 19  8.045208 5.699383 3.955100  0.000000
20 1 20  7.548742 7.591309 0.363729  0.000000
21 1 21  0.021163 0.045146 5.338034  0.000000
22 1 22  6.302622 9.312370 1.606556  0.000000
23 1 23  1.674079 8.024254 3.191388  0.000000
24 1 24  9.380177 3.049912 2.710486  0.000000
25 1 25  4.857875 3.859106 6.679064  0.000000
26 1 26  4.971833 6.001294 1.430124  0.000000
27 1 27  9.508530 9.886614 2.631005  0.000000
28 1 28  3.867776 3.102481 7.532009  0.000000
29 1 29  1.037768 9.277611 5.493097  0.000000
30 1 30  1.188780 4.722673 8.101551  0.000000
31 1 31  2.044657 6.035045 1.411021  0.000000
32 1 32  8.684532 3.161677 1.837128  0.000000
33 1 33  4.072099 8.017900 8.394791  0.000000
34 1 34  4.888713 5.413322 9.204633  0.000000
35 1 35  1.869644 8.013764 9.531893  0.000000
36 1 36  2.634712 6.333845 1.613208  0.000000
37 1 37  9.278713 7.472836 9.752731  0.000000
38 1 38  4.949947 6.340559 7.306490  0.000000
39 1 39  7.074069 3.187713 0.141075  0.000000
40 1 40  5.483162 7.547360 9.733010  0.000000
41 1 41  4.130839 7.083591 6.678303  0.000000
42 1 42  3.969335 4.457201 5.297477  0.000000
43 1 43  5.291575 7.422091 2.695023  0.000000
44 1 44  3.422915 0.144859 4.807023  0.000000
45 1 45  9.081540 3.299679 9.263311  0.000000
46 1 46  9.618113 4.280849 1.967673  0.000000
47 1 47  6.794802 3.806447 5.920471  0.000000
48 1 48  4.044405 1.689184 3.331446  0.000000
49 1 49  6.752978 7.945390 6.694638  0.000000
50 1 50  5.516913 3.667112 5.985405  0.000000
51 1 51  7.745354 5.171641 1.324838  0.000000
52 1 52  5.882926 8.057185 8.037724  0.000000
53 1 53  2.207710 5.520521 0.760680  0.000000
54 1 54  2.401159 1.782955 7.206141  0.000000
55 1 55  4.743520 4.231191 1.454174  0.000000
56 1 56  5.673017 3.339066 2.346371  0.000000
57 1 57  9.525338 4.510504 3.745624  0.000000
58 1 58  5.060348 2.802061 2.526576  0.000000
59 1 59  4.108140 2.944389 7.486153  0.000000
60 1 60  4.566095 8.558151 8.447013  0.000000
61 1 61  1.653862 3.096010 5.670432  0.000000
62 1 62  6.580170 5.535312 1.086848  0.000000
63 1 63  7.288283 1.009523 3.292441  0.000000
64 1 64  0.307536 7.248542 5.122262  0.000000
65 1 65  7.307558 5.387164 2.361203  0.000000
66 1 66  0.862159 1.736546 2.339840  0.000000
67 1 67  6.218693 7.077548 4.809025  0.000000
68 1 68  6.317933 6.006722 7.095429  0.000000
69 1 69  7.370866 3.771722 7.956493  0.000000
70 1 70  4.472409 1.734766 0.566432  0.000000
71 1 71  7.659116 1.392534 8.097069  0.000000
72 1 72  5.999313 5.021307 8.201696  0.000000
73 1 73  1.160167 0.282325 3.608986  0.000000
74 1 74  3.816213 1.240791 8.176795  0.000000
75 1 75  2.775395 1.529628 0.729562  0.000000
76 1 76  7.592942 7.685229 7.058548  0.000000
77 1 77  8.144225 4.037654 2.880217  0.000000
78 1 78  3.205199 3.352746 8.586420  0.000000
79 1 79  3.914798 3.442438 9.856875  0.000000
80 1 80  6.297146 7.709695 8.748431  0.000000
81 1 81  8.789221 5.347443 3.512082  0.000000
82 1 82  7.936434 5.393132 5.431802  0.000000
83 1 83  1.248260 4.613933 4.653747  0.000000
84 1 84  5.542320 9.063105 6.835838  0.000000
85 1 85  1.289432 8.207988 5.968060  0.000000
86 1 86  3.940298 6.545329 7.016893  0.000000
87 1 87  6.380413 5.610015 5.740756  0.000000
88 1 88  1.024049 3.349896 3.255660  0.000000
89 1 89  8.064343 3.716205 4.109117  0.000000
90 1 90  7.903169 2.154071 0.969631  0.000000
91 1 91  6.702854 9.563616 3.825270  0.000000
92 1 92  0.784006 1.286317 3.018061  0.000000
93 1 93  7.247221 1.275639 1.094738  0.000000
94 1 94  5.448501 8.424763 3.008042  0.000000
95 1 95  9.056769 6.430501 1.233141  0.000000
96 1 96  8.752129 0.576172 7.269113  0.000000
97 1 97  5.119121 4.449234 8.913981  0.000000
98 1 98  9.769944 7.785225 4.257879  0.000000
99 1 99  4.611265 2.363415 3.984074  0.000000
100 1 100  5.871974 9.462708 6.755130  0.000000
101 1 101  5.513825 2.303209 0.845199  0.000000
102 1 102  7.155477 0.289459 7.520256  0.000000
103 1 103  3.278091 9.552083 5.723793  0.000000
104 1 104  5.307788 0.602808 5.253882  0.000000
105 1 105  5.571626 2.748141 9.205117  0.000000
106 1 106  4.357797 0.871106 9.976026  0.000000
107 1 107  7.794925 0.354877 1.040017  0.000000
108 1 108  4.004525 0.263654 3.416375  0.000000
109 1 109  5.497647 4.693979 0.852145  0.000000
110 1 110  5.116966 3.808125 5.896725  0.000000
111 1 111  2.688053 0.210427 0.430416  0.000000
112 1 112  5.245012 9.613792 5.586684  0.000000
113 1 113  4.976359 0.024425 7.288762  0.000000
114 1 114  9.172803 6.495044 3.650940  0.000000
115 1 115  4.123015 5.665204 0.114663  0.000000
116 1 116  3.231954 3.422450 3.630242  0.000000
117 1 117  8.639136 2.807404 7.535281  0.000000
118 1 118  4.098186 9.722978 8.767862  0.000000
119 1 119  5.953068 7.256052 9.041849  0.000000
120 1 120  4.339639 5.910541 2.863574  0.000000
121 1 121  0.519146 8.357244 7.625982  0.000000
122 1 122  8.218668 0.789625 5.774552  0.000000
123 1 123  3.644819 6.079866 2.454697  0.000000
124 1 124  5.546580 0.613757 9.822332  0.000000
125 1 125  0.370779 3.712847 7.457729  0.000000
126 1 126  4.107195 6.419200 5.307667  0.000000
127 1 127  1.618096 4.935025 1.279966  0.000000
128 1 128  1.444579 1.234177 5.026887  0.000000
129 1 129  1.636565 0.772531 4.220605  0.000000
130 1 130  8.210705 7.207157 9.825976  0.000000
131 1 131  9.054212 5.713170 1.073390  0.000000
132 1 132  7.982140 4.400933 8.027183  0.000000
133 1 133  7.941511 6.910836 3.423151  0.000000
134 1 134  5.706951 3.234511 7.867052  0.000000
135 1 135  7.053651 6.734212 8.829503  0.000000
136 1 136  0.938384 2.673988 2.899855  0.000000
137 1 137  9.272730 1.535994 2.915699  0.000000
138 1 138  8.218937 1.664527 8.050538  0.000000
139 1 139  9.479172 7.778446 0.426173  0.000000
140 1 140  1.204582 4.814048 4.948927  0.000000
141 1 141  8.890458 9.213402 2.490139  0.000000
142 1 142  2.291921 8.055447 2.104962  0.000000
143 1 143  2.502365 1.422643 0.002401  0.000000
144 1 144  0.318154 2.289857 5.151972  0.000000
145 1 145  9.012847 4.138470 0.650671  0.000000
146 1 146  4.080315 2.269332 2.743025  0.000000
147 1 147  8.359612 7.142606 8.174730  0.000000
148 1 148  7.320421 7.135701 1.544320  0.000000
149 1 149  8.716301 1.072858 1.608792  0.000000
150 1 150  8.586487 2.525986 9.731912  0.000000
151 1 151  8.030675 0.294922 0.932068  0.000000
152 1 152  0.500980 3.947515 5.588188  0.000000
153 1 153  3.218508 8.669596 1.171492  0.000000
154 1 154  1.917429 9.622197 1.860697  0.000000
155 1 155  0.303776 3.829865 5.061408  0.000000
156 1 156  0.647780 1.399304 3.113073  0.000000
157 1 157  6.411803 3.773233 4.346159  0.000000
158 1 158  5.361121 4.653248 4.344243  0.000000
159 1 159  3.710156 1.642815 5.693292  0.000000
160 1 160  8.870059 7.045922 6.391695  0.000000
161 1 161  3.948995 5.642126 6.549436  0.000000
162 1 162  4.903898 2.701770 8.528618  0.000000
163 1 163  2.795251 8.115511 8.367257  0.000000
164 1 164  8.492411 4.477323 5.234304  0.000000
165 1 165  9.166684 9.065458 3.256960  0.000000
166 1 166  9.663251 1.644794 5.024557  0.000000
167 1 167  8.090044 1.990747 0.187589  0.000000
168 1 168  7.347901 8.054337 1.094348  0.000000
169 1 169  6.161740 8.480742 4.022894  0.000000
170 1 170  3.621815 1.892109 4.702219  0.000000
171 1 171  2.634009 3.923861 9.803596  0.000000
172 1 172  3.932403 8.745638 0.265833  0.000000
173 1 173  7.086993 3.407346 7.209962  0.000000
174 1 174  5.405504 8.610950 7.478397  0.000000
175 1 175  4.716773 3.536188 7.094674  0.000000
176 1 176  6.098915 5.107183 3.101024  0.000000
177 1 177  8.513121 7.437896 5.081048  0.000000
178 1 178  5.158838 9.251123 0.684647  0.000000
179 1 179  8.785198 0.390410 7.742050  0.000000
180 1 180  3.869835 1.260910 4.042103  0.000000
181 1 181  2.508269 3.216979 1.951384  0.000000
182 1 182  1.180105 6.829910 2.197920  0.000000
183 1 183  1.367006 5.259007 5.839624  0.000000
184 1 184  5.822020 2.447773 1.329160  0.000000
185 1 185  4.009505 1.072086 8.127241  0.000000
186 1 186  0.258889 6.794884 1.998812  0.000000
187 1 187  3.341428 6.116640 5.870227  0.000000
188 1 188  1.981611 1.299089 5.206237  0.000000
189 1 189  7.761644 8.233160 7.499084  0.000000
190 1 190  4.696128 6.820015 0.603878  0.000000
191 1 191  0.964838 0.999365 5.420381  0.000000
192 1 192  0.255837 5.295970 1.421442  0.000000
193 1 193  3.344666 2.997197 3.434100  0.000000
194 1 194  6.122281 4.564517 9.363352  0.000000
195 1 195  2.853684 9.255558 0.130065  0.000000
196 1 196  3.365351 5.388002 4.875722  0.000000
197 1 197  0.484226 4.492571 1.316497  0.000000
198 1 198  2.813470 8.158632 7.626737  0.000000
199 1 199  4.984021 9.318680 4.422667  0.000000
200 1 200  3.957646 1.921059 0.185734  0.000000
201 1 201  4.600598 8.611067 5.648910  0.000000
202 1 202  3.794705 3.302081 0.567074  0.000000
203 1 203  8.749804 8.664737 5.052537  0.000000
204 1 204  2.476940 1.789766 3.288055  0.000000
205 1 205  9.222550 1.449429 5.270921  0.000000
206 1 206  9.739499 0.423346 5.422682  0.000000
207 1 207  8.963966 1.519894 9.506641  0.000000
208 1 208  2.029298 7.499455 9.755108  0.000000
209 1 209  7.285351 6.842977 8.646110  0.000000
210 1 210  1.259360 4.273924 1.535533  0.000000
211 1 211  0.579479 6.325971 3.469335  0.000000
212 1 212  7.787703 3.976219 8.062778  0.000000
213 1 213  0.056799 2.712461 6.074409  0.000000
214 1 214  9.767537 1.969045 7.055765  0.000000
215 1 215  0.130067 7.714406 3.626205  0.000000
216 1 216  1.125612 4.128288 2.617967  0.000000
217 1 217  7.676286 4.707582 0.662217  0.000000
218 1 218  0.138768 4.320683 8.136346  0.000000
219 1 219  8.311195 6.107583 6.976650  0.000000
220 1 220  2.261479 0.198557 4.275746  0.000000
221 1 221  5.658447 1.281442 8.236204  0.000000
222 1 222  3.052718 0.684357 2.590446  0.000000
223 1 223  5.877941 9.974425 8.373690  0.000000
224 1 224  8.031245 2.339799 5.018209  0.000000
225 1 225  5.295141 5.034826 0.692447  0.000000
226 1 226  7.620758 1.429225 4.851295  0.000000
227 1 227  0.885012 1.534218 1.510199  0.000000
228 1 228  2.268742 4.379343 8.479432  0.000000
229 1 229  4.739813 3.872336 2.510167  0.000000
230 1 230  5.742212 8.611003 3.038193  0.000000
231 1 231  0.187534 9.888784 5.073472  0.000000
232 1 232  2.379391 8.593704 6.395539  0.000000
233 1 233  0.786187 8.815724 5.224451  0.000000
234 1 234  5.474162 4.932325 1.556314  0.000000
235 1 235  6.625826 6.986691 0.335778  0.000000
236 1 236  6.039762 3.744019 1.303510  0.000000
237 1 237  4.678189 0.831781 4.333134  0.000000
238 1 238  8.943072 6.078907 7.176735  0.000000
239 1 239  0.183709 8.695102 5.343890  0.000000
240 1 240  4.539304 4.580771 1.250506  0.000000
241 1 241  5.196861 8.494025 9.981640  0.000000
242 1 242  0.187898 0.585980 2.881493  0.000000
243 1 243  6.380717 8.817727 8.094421  0.000000
244 1 244  9.224577 2.529945 3.988359  0.000000
245 1 245  8.754127 5.787509 0.712024  0.000000
246 1 246  6.067408 8.310732 8.397709  0.000000
247 1 247  3.634464 7.298532 9.673272  0.000000
248 1 248  0.002947 9.897587 7.713430  0.000000
249 1 249  3.854853 4.118144 8.606915  0.000000
250 1 250  9.932062 8.193475 8.789651  0.000000
251 1 251  8.515236 9.603832 0.480037  0.000000
252 1 252  3.116076 1.508998 1.067856  0.000000
253 1 253  2.335433 5.000144 1.219910  0.000000
254 1 254  7.447134 7.999540 9.204437  0.000000
255 1 255  5.533772 9.486789 2.367710  0.000000
256 1 256  8.745423 1.278945 8.946162  0.000000
257 1 257  3.044354 1.152137 2.440431  0.000000
258 1 258  0.940018 6.578156 3.797261  0.000000
259 1 259  0.649982 1.131621 9.421217  0.000000
260 1 260  2.266138 4.822582 1.350162  0.000000
261 1 261  2.520236 7.612724 1.787752  0.000000
262 1 262  8.943600 9.879506 1.597403  0.000000
263 1 263  6.739221 8.019499 9.413131  0.000000
264 1 264  6.499206 5.062869 4.750370  0.000000
265 1 265  3.768028 6.994135 1.874126  0.000000
266 1 266  2.530312 8.829864 1.676557  0.000000
267 1 267  6.786973 0.355437 3.783221  0.000000
268 1 268  9.682547 0.649772 3.234672  0.000000
269 1 269  6.465969 0.074901 1.444123  0.000000
270 1 270  2.678845 4.364950 9.887012  0.000000
271 1 271  4.277131 9.506542 7.434655  0.000000
272 1 272  6.585783 2.545707 7.816183  0.000000
273 1 273  8.942548 3.635528 4.809928  0.000000
274 1 274  3.790577 9.385606 9.639894  0.000000
275 1 275  0.941586 0.103672 9.745923  0.000000
276 1 276  8.676047 5.242001 9.907516  0.000000
277 1 277  9.667159 8.793110 5.611079  0.000000
278 1 278  8.742219 6.332673 5.830347  0.000000
279 1 279  4.947442 4.721992 4.627739  0.000000
280 1 280  5.040418 5.103465 3.321587  0.000000
281 1 281  1.689600 8.869308 2.015018  0.000000
282 1 282  7.662421 3.335221 1.041815  0.000000
283 1 283  8.231945 0.972765 0.582796  0.000000
284 1 284  0.083501 7.995397 5.776239  0.000000
285 1 285  6.806394 9.469961 2.422434  0.000000
286 1 286  0.662381 7.216192 6.774217  0.000000
287 1 287  1.227664 7.536747 0.980872  0.000000
288 1 288  5.035346 6.237381 7.450185  0.000000
289 1 289  7.306795 6.001827 5.101598  0.000000
290 1 290  4.978689 8.975418 2.004662  0.000000
291 1 291  2.396542 2.423411 0.180973  0.000000
292 1 292  3.297932 2.797564 9.885065  0.000000
293 1 293  0.532559 1.651154 3.610682  0.000000
294 1 294  6.237482 9.078658 3.471726  0.000000
295 1 295  9.822931 9.466900 3.338601  0.000000
296 1 296  1.502950 1.845031 0.184917  0.000000
297 1 297  6.504980 1.805501 9.864914  0.000000
298 1 298  6.283162 9.786561 8.859148  0.000000
299 1 299  9.811575 0.358961 2.559429  0.000000
300 1 300  7.411569 4.482345 9.069514  0.000000
301 1 301  1.574104 8.241106 3.727877  0.000000
302 1 302  8.736046 7.134551 5.746991  0.000000
303 1 303  5.711621 3.123211 2.925086  0.000000
304 1 304  3.304177 9.167086 8.263594  0.000000
305 1 305  9.816415 9.579605 9.538671  0.000000
306 1 306  5.821995 8.645197 5.480519  0.000000
307 1 307  0.308173 8.762943 9.259010  0.000000
308 1 308  3.672939 0.851509 6.082297  0.000000
309 1 309  5.838231 0.470592 7.337296  0.000000
310 1 310  1.381351 5.431058 9.669661  0.000000
311 1 311  5.049447 2.429963 3.365144  0.000000
312 1 312  4.044558 3.886086 4.663110  0.000000
313 1 313  1.304777 0.685372 0.889698  0.000000
314 1 314  4.596284 9.394807 8.024405  0.000000
315 1 315  9.199080 4.116810 4.590112  0.000000
316 1 316  6.584712 6.480080 0.446984  0.000000
317 1 317  2.596902 5.247359 1.925278  0.000000
318 1 318  9.125788 6.626611 0.126011  0.000000
319 1 319  7.490859 5.491673 4.704125  0.000000
320 1 320  3.207218 1.986690 7.749994  0.000000
321 1 321  0.256143 3.066367 8.003378  0.000000
322 1 322  9.499833 3.759606 3.887656  0.000000
323 1 323  7.154083 3.994353 6.396082  0.000000
324 1 324  1.670259 9.662131 9.856891  0.000000
325 1 325  5.406713 9.105167 7.178989  0.000000
326 1 326  7.226673 8.182769 5.985627  0.000000
327 1 327  9.024955 5.429596 1.810009  0.000000
328 1 328  0.625663 4.473067 9.742549  0.000000
329 1 329  0.803161 9.406557 9.977031  0.000000
330 1 330  5.967471 7.419311 6.457660  0.000000
331 1 331  1.235715 4.742558 7.364770  0.000000
332 1 332  8.629724 3.697899 2.486540  0.000000
333 1 333  0.434345 9.060529 6.922875  0.000000
334 1 334  3.819024 9.402673 0.825192  0.000000
335 1 335  9.865498 4.884416 3.868795  0.000000
336 1 336  2.716458 9.718438 1.778341  0.000000
337 1 337  6.374289 7.090922 7.292246  0.000000
338 1 338  7.951963 1.701786 2.720636  0.000000
339 1 339  3.920824 7.266712 5.738108  0.000000
340 1 340  3.883368 3.989943 9.442524  0.000000
341 1 341  8.255076 1.162107 8.424238  0.000000
342 1 342  2.764700 1.617667 1.152931  0.000000
343 1 343  8.076909 9.566774 0.449496  0.000000
344 1 344  5.825486 4.934191 7.282638  0.000000
345 1 345  8.182210 9.632344 7.227519  0.000000
346 1 346  9.327342 5.070662 7.885981  0.000000
347 1 347  5.003302 3.146572 2.424689  0.000000
348 1 348  5.553269 6.879760 5.755968  0.000000
349 1 349  1.579423 5.575820 6.661918  0.000000
350 1 350  4.173040 0.823466 0.278333  0.000000
351 1 351  4.461086 6.923945 6.625408  0.000000
352 1 352  2.139930 9.421589 0.583527  0.000000
353 1 353  6.993512 5.217760 3.748331  0.000000
354 1 354  1.239921 4.129159 5.962075  0.000000
355 1 355  2.099868 1.676937 3.133935  0.000000
356 1 356  7.762328 4.811006 3.300350  0.000000
357 1 357  0.152681 6.704053 2.380692  0.000000
358 1 358  1.969020 9.108895 5.863069  0.000000
359 1 359  2.557369 5.470930 6.594401  0.000000
360 1 360  0.413476 7.067952 6.997267  0.000000
361 1 361  8.335893 5.338563 8.351114  0.000000
362 1 362  4.816277 6.548892 2.295589  0.000000
363 1 363  0.995770 7.424394 7.683059  0.000000
364 1 364  4.335439 0.688558 1.456249  0.000000
365 1 365  9.655080 1.203936 3.161073  0.000000
366 1 366  2.257130 9.435155 6.953228  0.000000
367 1 367  9.368805 6.571509 0.380892  0.000000
368 1 368  6.844826 3.913128 6.092074  0.000000
369 1 369  9.136135 4.120208 6.223975  0.000000
370 1 370  8.837186 3.318525 3.674865  0.000000
371 1 371  8.196554 6.497437 2.748043  0.000000
372 1 372  5.208173 4.351949 1.685448  0.000000
373 1 373  3.855980 3.731482 8.912404  0.000000
374 1 374  9.033607 0.690321 1.163442  0.000000
375 1 375  8.269258 0.946568 9.525060  0.000000
376 1 376  6.488264 9.294358 8.730856  0.000000
377 1 377  4.658141 6.649842 6.203062  0.000000
378 1 378  4.397525 5.704760 8.732179  0.000000
379 1 379  3.201909 0.458556 6.825552  0.000000
380 1 380  7.443450 2.736586 4.792731  0.000000
381 1 381  7.786245 5.095170 5.854718  0.000000
382 1 382  8.734286 5.927946 4.665915  0.000000
383 1 383  4.880227 5.521001 4.525833  0.000000
384 1 384  9.669127 4.330475 4.423625  0.000000
385 1 385  9.905791 5.034276 1.488792  0.000000
386 1 386  6.189788 7.050806 1.380586  0.000000
387 1 387  4.325210 7.090555 6.429717  0.000000
388 1 388  8.752275 8.511930 0.651694  0.000000
389 1 389  1.067249 6.313009 4.044267  0.000000
390 1 390  9.490038 0.187079 5.896105  0.000000
391 1 391  9.869134 5.280503 0.999981  0.000000
392 1 392  4.277431 8.097398 5.734112  0.000000
393 1 393  4.904128 7.991946 7.140189  0.000000
394 1 394  2.026667 6.766198 0.017319  0.000000
395 1 395  1.281677 3.488724 8.627358  0.000000
396 1 396  1.047718 5.351016 9.561070  0.000000
397 1 397  2.724620 1.204301 3.218816  0.000000
398 1 398  1.963738 4.823192 0.924800  0.000000
399 1 399  9.944969 3.746094 1.827092  0.000000
400 1 400  0.916092 1.474234 6.115158  0.000000
401 1 401  0.914103 9.959184 2.507577  0.000000
402 1 402  2.155373 4.016366 5.685627  0.000000
403 1 403  9.460584 7.047871 0.211117  0.000000
404 1 404  6.964597 3.922351 3.385296  0.000000
405 1 405  8.841844 4.339886 0.329252  0.000000
406 1 406  3.004735 1.607125 2.450217  0.000000
407 1 407  0.099523 9.557916 1.392606  0.000000
408 1 408  8.030979 0.582931 5.509897  0.000000
409 1 409  5.042578 2.138347 6.685870  0.000000
410 1 410  7.189669 5.312701 6.882543  0.000000
411 1 411  7.758785 8.976891 9.509405  0.000000
412 1 412  4.363427 2.128887 6.110787  0.000000
413 1 413  2.586180 6.739629 0.430212  0.000000
414 1 414  5.015556 2.584413 0.763950  0.000000
415 1 415  8.422923 8.018335 3.416484  0.000000
416 1 416  6.332821 7.474105 4.227690  0.000000
417 1 417  1.535903 5.709764 2.817714  0.000000
418 1 418  0.501659 5.980750 8.274480  0.000000
419 1 419  5.795393 4.298805 9.759136  0.000000
420 1 420  2.471621 0.736481 6.477310  0.000000
421 1 421  9.505196 5.371897 0.786663  0.000000
422 1 422  0.538237 6.102966 0.397646  0.000000
423 1 423  0.482156 1.451695 3.969328  0.000000
424 1 424  5.482773 5.357337 9.097068  0.000000
425 1 425  7.717858 2.512710 3.214528  0.000000
426 1 426  3.955299 3.184328 2.767430  0.000000
427 1 427  0.539785 6.598369 8.290319  0.000000
428 1 428  7.248439 1.008037 0.903978  0.000000
429 1 429  7.981232 6.886034 2.790221  0.000000
430 1 430  9.015075 5.406644 3.375026  0.000000
431 1 431  0.299987 8.096053 9.658025  0.000000
432 1 432  7.070850 5.917069 6.388501  0.000000
433 1 433  2.755366 7.086710 4.284851  0.000000
434 1 434  2.157000 5.467669 0.760838  0.000000
435 1 435  2.705541 6.540805 6.852174  0.000000
436 1 436  5.211353 5.011704 9.397771  0.000000
437 1 437  4.595544 1.190846 2.228915  0.000000
438 1 438  5.737351 2.800703 4.691806  0.000000
439 1 439  3.478164 2.214582 9.431593  0.000000
440 1 440  3.282694 4.840547 1.600944  0.000000
441 1 441  9.582562 5.655996 8.918760  0.000000
442 1 442  8.625219 8.531361 9.160646  0.000000
443 1 443  9.399093 7.170634 0.710192  0.000000
444 1 444  3.991267 0.038267 0.516444  0.000000
445 1 445  8.145798 9.525888 0.250595  0.000000
446 1 446  1.052157 0.353906 6.675842  0.000000
447 1 447  9.184615 2.832713 3.479328  0.000000
448 1 448  3.351257 9.157789 5.912734  0.000000
449 1 449  3.807283 4.156843 6.190640  0.000000
450 1 450  1.142318 3.821700 0.980220  0.000000
451 1 451  5.581390 2.305820 3.079999  0.000000
452 1 452  3.860382 0.624072 5.241271  0.000000
453 1 453  8.341052 3.096097 7.591916  0.000000
454 1 454  9.350004 9.806014 4.393798  0.000000
455 1 455  3.997927 2.517417 6.676540  0.000000
456 1 456  9.327528 8.906576 8.597977  0.000000
457 1 457  5.607803 3.199624 7.016286  0.000000
458 1 458  4.953865 0.461648 3.726060  0.000000
459 1 459  8.993579 2.752418 0.656107  0.000000
460 1 460  8.057608 5.952683 5.427177  0.000000
461 1 461  4.033987 7.024826 8.176731  0.000000
462 1 462  9.140180 9.153391 8.179251  0.000000
463 1 463  9.751897 9.965220 0.934869  0.000000
464 1 464  2.090079 0.731629 2.505244  0.000000
465 1 465  1.716226 9.108288 9.185838  0.000000
466 1 466  1.804036 8.109645 1.522116  0.000000
467 1 467  5.859380 6.556962 5.781627  0.000000
468 1 468  2.322493 9.152452 8.639013  0.000000
469 1 469  3.695498 7.843511 6.898070  0.000000
470 1 470  4.332318 0.961190 9.147522  0.000000
471 1 471  2.906246 4.834789 5.775823  0.000000
472 1 472  0.900311 2.197993 9.781710  0.000000
473 1 473  2.912245 7.422928 2.535277  0.000000
474 1 474  5.436701 6.793437 2.161140  0.000000
475 1 475  7.581370 2.764378 1.407134  0.000000
476 1 476  5.417248 3.496907 8.512393  0.000000
477 1 477  0.985160 5.619972 1.238355  0.000000
478 1 478  8.263670 9.771602 2.214507  0.000000
479 1 479  3.609282 3.788596 2.763046  0.000000
480 1 480  2.061681 6.229622 8.010797  0.000000
481 1 481  0.964908 5.325731 7.347229  0.000000
482 1 482  5.419295 4.253221 6.010458  0.000000
483 1 483  7.599030 0.932111 8.011252  0.000000
484 1 484  6.273315 0.176645 3.142062  0.000000
485 1 485  5.280425 7.227842 7.217363  0.000000
486 1 486  8.789976 2.877036 0.613577  0.000000
487 1 487  9.078595 8.559191 9.998549  0.000000
488 1 488  1.574273 8.383661 3.127200  0.000000
489 1 489  3.489817 1.940400 0.776412  0.000000
490 1 490  7.736206 3.883766 0.979065  0.000000
491 1 491  8.324123 9.298461 4.289196  0.000000
492 1 492  1.461684 7.124274 6.271599  0.000000
493 1 493  5.983018 1.806198 2.400823  0.000000
494 1 494  7.795712 0.564566 5.687564  0.000000
495 1 495  4.040648 7.367766 3.589232  0.000000
496 1 496  5.519469 4.028585 4.862290  0.000000
497 1 497  0.591364 3.076062 0.580161  0.000000
498 1 498  3.432445 6.873449 3.609495  0.000000
499 1 499  0.911119 7.723247 9.833970  0.000000
500 1 500  4.587428 1.525211 9.946902  0.000000
501 1 501  7.638062 5.354222 9.348701  0.000000
502 1 502  0.261797 3.382568 9.830939  0.000000
503 1 503  0.069528 3.073258 0.329791  0.000000
504 1 504  3.844367 6.398675 8.052299  0.000000
505 1 505  6.158902 6.827613 9.863993  0.000000
506 1 506  6.166381 0.598122 0.092076  0.000000
507 1 507  5.810020 1.311640 6.025595  0.000000
508 1 508  2.966557 5.982444 6.292407  0.000000
509 1 509  7.841535 8.239326 5.852051  0.000000
510 1 510  8.620074 2.646325 6.628612  0.000000
511 1 511  2.238459 8.632945 5.974389  0.000000
512 1 512  6.743431 0.271081 8.371898  0.000000
513 1 513  8.452846 5.278950 8.271916  0.000000
514 1 514  9.633691 8.104180 7.712928  0.000000
515 1 515  8.561439 5.744248 8.136006  0.000000
516 1 516  0.342416 7.091062 0.790548  0.000000
517 1 517  0.443626 5.719992 0.102714  0.000000
518 1 518  7.466675 1.701897 7.626484  0.000000
519 1 519  8.598020 3.670730 7.901669  0.000000
520 1 520  7.381264 5.430290 9.689466  0.000000
521 1 521  1.691452 2.215940 3.572948  0.000000
522 1 522  2.184180 4.362537 9.561582  0.000000
523 1 523  2.409669 6.512758 9.718597  0.000000
524 1 524  3.279986 1.282123 8.639082  0.000000
525 1 525  6.385785 8.639378 4.714041  0.000000
526 1 526  2.129046 6.179881 6.261892  0.000000
527 1 527  3.769141 7.787897 4.854589  0.000000
528 1 528  0.247231 6.058114 0.113621  0.000000
529 1 529  1.296679 5.376565 5.725809  0.000000
530 1 530  8.843767 6.274916 3.790350  0.000000
531 1 531  7.933053 2.860774 0.045975  0.000000
532 1 532  0.372952 7.970122 9.268776  0.000000
533 1 533  3.974329 3.075880 4.067783  0.000000
534 1 534  4.191900 2.640432 1.745801  0.000000
535 1 535  7.024122 7.078425 1.355267  0.000000
536 1 536  3.994956 7.652997 7.967410  0.000000
537 1 537  0.805913 7.555902 5.840047  0.000000
538 1 538  5.557233 9.022554 2.847238  0.000000
539 1 539  0.450750 0.539512 0.331257  0.000000
540 1 540  0.223192 4.378727 2.975595  0.000000
541 1 541  9.169899 9.194319 9.701136  0.000000
542 1 542  8.993470 5.735671 5.588186  0.000000
543 1 543  4.049408 2.271298 9.822104  0.000000
544 1 544  9.120315 8.749519 4.433211  0.000000
545 1 545  4.659476 4.396188 5.873996  0.000000
546 1 546  3.037625 2.752149 4.028343  0.000000
547 1 547  8.037107 6.030498 2.360806  0.000000
548 1 548  3.549359 3.006889 3.624377  0.000000
549 1 549  8.492483 0.036113 4.687076  0.000000
550 1 550  4.774548 5.892208 0.582599  0.000000
551 1 551  6.513554 2.163234 9.466757  0.000000
552 1 552  1.408420 2.692326 3.108823  0.000000
553 1 553  9.961917 2.019607 4.568486  0.000000
554 1 554  8.396485 1.830527 1.991265  0.000000
555 1 555  0.295856 6.706810 0.961053  0.000000
556 1 556  9.602537 1.679641 2.819288  0.000000
557 1 557  6.987772 6.523153 4.494722  0.000000
558 1 558  1.440104 5.340444 0.323014  0.000000
559 1 559  6.338880 5.337121 5.580104  0.000000
560 1 560  9.175844 3.705604 9.477413  0.000000
561 1 561  1.478083 9.166323 3.616060  0.000000
562 1 562  5.816334 7.505989 4.900651  0.000000
563 1 563  1.369832 0.065573 7.319490  0.000000
564 1 564  0.899856 3.690908 1.072831  0.000000
565 1 565  2.772895 6.975212 8.935153  0.000000
566 1 566  5.229472 1.862858 3.240644  0.000000
567 1 567  2.443179 4.115597 5.874901  0.000000
568 1 568  9.574295 2.607213 6.211250  0.000000
569 1 569  6.064263 5.757341 3.371303  0.000000
570 1 570  6.996304 8.179070 8.402995  0.000000
571 1 571  2.297245 2.537465 5.884252  0.000000
572 1 572  6.224324 1.947500 0.309853  0.000000
573 1 573  0.113773 6.112639 0.805895  0.000000
574 1 574  9.138156 0.583768 7.918890  0.000000
575 1 575  5.255665 8.748387 1.514314  0.000000
576 1 576  2.522893 8.192149 5.716307  0.000000
577 1 577  5.175537 3.519230 0.369321  0.000000
578 1 578  8.535326 1.704159 5.660356  0.000000
579 1 579  1.800731 3.190485 0.085296  0.000000
580 1 580  9.041806 0.278438 5.153504  0.000000
581 1 581  9.332139 4.311348 2.175467  0.000000
582 1 582  6.298277 8.402248 3.977075  0.000000
583 1 583  3.673323 2.484229 1.149580  0.000000
584 1 584  0.961538 5.343058 1.347396  0.000000
585 1 585  0.543204 4.997321 9.394895  0.000000
586 1 586  8.525761 8.718493 3.609909  0.000000
587 1 587  8.347635 1.488886 2.570626  0.000000
588 1 588  7.812156 1.930318 7.204119  0.000000
589 1 589  3.706045 8.090328 7.891810  0.000000
590 1 590  6.470538 2.784260 9.320216  0.000000
591 1 591  7.463853 8.068596 0.373916  0.000000
592 1 592  4.297988 3.113755 9.467405  0.000000
593 1 593  2.583674 6.026523 7.650460  0.000000
594 1 594  7.132256 9.005662 7.389456  0.000000
595 1 595  9.347594 4.414797 8.328165  0.000000
596 1 596  8.294044 7.818572 2.263035  0.000000
597 1 597  9.067867 6.264000 7.197634  0.000000
598 1 598  5.687848 0.604064 0.702098  0.000000
599 1 599  1.070013 3.875600 5.423726  0.000000
600 1 600  3.334888 2.419430 0.229678  0.000000
601 1 601  0.588366 6.880289 1.370741  0.000000
602 1 602  5.897995 0.340513 1.455745  0.000000
603 1 603  3.974115 9.689778 9.996362  0.000000
604 1 604  5.748938 7.843638 4.041049  0.000000
605 1 605  7.713043 0.720425 0.953069  0.000000
606 1 606  0.766486 5.403852 9.568037  0.000000
607 1 607  6.421344 1.440288 1.345531  0.000000
608 1 608  9.375232 5.136378 0.282945  0.000000
609 1 609  7.842911 9.362266 4.326258  0.000000
610 1 610  0.320155 5.002394 9.217780  0.000000
611 1 611  6.057223 8.377057 3.569382  0.000000
612 1 612  5.313810 9.497496 6.551472  0.000000
613 1 613  7.413926 1.338625 8.991970  0.000000
614 1 614  3.413898 0.727927 4.563493  0.000000
615 1 615  1.191107 4.412282 9.181973  0.000000
616 1 616  8.063290 7.093436 1.890395  0.000000
617 1 617  0.847499 3.585284 9.880716  0.000000
618 1 618  5.415538 4.779793 3.094307  0.000000
619 1 619  3.935932 8.358089 3.488178  0.000000
620 1 620  0.987630 5.495524 2.667116  0.000000
621 1 621  9.277505 1.872209 9.826115  0.000000
622 1 622  6.391077 3.781518 1.565450  0.000000
623 1 623  2.926239 5.798902 6.573040  0.000000
624 1 624  4.836108 6.672545 8.015238  0.000000
625 1 625  0.879180 1.902312 5.394008  0.000000
626 1 626  3.840717 7.887813 6.123933  0.000000