ITEM: TIMESTEP
0
ITEM: NUMBER OF ATOMS
20
ITEM: BOX BOUNDS pp pp pp
0.000000 20.000000
0.000000 20.000000
0.000000 20.000000
ITEM: ATOMS id type mol x y z q
1 1 1  10.038732 10.909193 3.535076  0.000000
2 1 2  11.616817 8.378232 9.942070  0.000000
3 1 3  6.910610 4.019892 9.678907  0.000000
4 1 4  17.203455 3.631623 1.191006  0.000000
5 1 5  5.182270 15.286265 14.212893  0.000000
6 1 6  19.305412 7.834200 2.305493  0.000000
7 1 7  12.067682 19.011259 15.626375  0.000000
8 1 8  11.069149 1.917691 11.063430  0.000000
9 1 9  4.342109 16.995218 19.167856  0.000000
10 1 10  10.115037 14.492988 16.661644  0.000000
11 1 11  7.406655 14.237705 0.603883  0.000000
12 1 12  10.794713 18.092464 2.030238  0.000000
13 1 13  2.680868 17.155949 18.993958  0.000000
14 1 14  12.055199 14.156963 14.611228  0.000000
15 1 15  4.475096 14.720652 13.161894  0.000000
16 1 16  7.907953 15.648424 8.577169  0.000000
17 1 17  17.056423 18.959970 18.411179  0.000000
18 1 18  5.338409 2.317690 2.256097  0.000000
19 1 19  19.294867 17.463024 6.155549  0.000000
20 1 20  10.832771 1.963139 15.053106  0.000000
ITEM: TIMESTEP
5000
ITEM: NUMBER OF ATOMS
20
ITEM: BOX BOUNDS pp pp pp
0.000000 20.000000
0.000000 20.000000
0.000000 20.000000
ITEM: ATOMS id type mol x y z q
1 1 1  8.890880 17.276556 9.056908  0.000000
2 1 2  9.951903 17.828400 10.805218  0.000000
3 1 3  9.423201 6.978366 17.296556  0.000000
4 1 4  7.779117 15.501463 5.441794  0.000000
5 1 5  0.637212 14.272634 18.207247  0.000000
6 1 6  12.184106 15.651166 18.005228  0.000000
7 1 7  11.830077 19.881857 4.083581  0.000000
8 1 8  9.054206 2.925802 6.522496  0.000000
9 1 9  12.651921 11.097284 12.003804  0.000000
10 1 10  18.007788 14.155416 3.746356  0.000000
11 1 11  11.356364 0.542957 7.270183  0.000000
12 1 12  0.041759 9.755947 14.197199  0.000000
13 1 13  13.557397 8.306459 7.149979  0.000000
14 1 14  6.665358 2.434728 17.473108  0.000000
15 1 15  0.753169 9.507848 15.040034  0.000000
16 1 16  9.433914 10.110101 8.854416  0.000000
17 1 17  14.525155 13.735429 14.096540  0.000000
18 1 18  16.735832 6.162122 13.987618  0.000000
19 1 19  18.530960 11.507313 18.297262  0.000000
20 1 20  19.203598 3.796937 17.481131  0.000000
