arrrr

50000 atoms
0 bonds
0 angles

2 atom types
0 bond types
0 angle types

0.000000 125.000000 xlo xhi
0.000000 125.000000 ylo yhi
0.000000 5.000000 zlo zhi

Masses

1 1.000000
2 1.000000

Atoms

1 1 1 48.278674 84.091104 0.000000
2 2 2 47.419708 86.020094 0.000000
3 3 1 46.198004 88.187571 0.000000
4 4 2 46.615739 88.257287 0.000000
5 5 1 46.750699 86.443730 0.000000
6 6 2 47.122085 85.823667 0.000000
7 7 1 46.556277 85.794170 0.000000
8 8 2 46.727379 87.279244 0.000000
9 9 1 47.271717 87.005852 0.000000
10 10 2 46.011392 86.827254 0.000000
11 11 1 44.846132 85.813383 0.000000
12 12 2 44.954766 87.529681 0.000000
13 13 1 46.302130 87.843355 0.000000
14 14 2 46.493450 87.647336 0.000000
15 15 1 46.253442 87.619574 0.000000
16 16 2 45.243409 87.900396 0.000000
17 17 1 44.662041 88.769786 0.000000
18 18 2 46.912188 88.299085 0.000000
19 19 1 46.302620 87.783190 0.000000
20 20 2 47.234707 87.533059 0.000000
21 21 1 12.155584 95.636374 0.000000
22 22 2 10.509544 96.324973 0.000000
23 23 1 10.557528 97.257457 0.000000
24 24 2 12.086495 96.337318 0.000000
25 25 1 12.623198 97.507774 0.000000
26 26 2 11.407195 96.184159 0.000000
27 27 1 12.780250 97.149725 0.000000
28 28 2 12.389816 98.649620 0.000000
29 29 1 13.454646 97.128967 0.000000
30 30 2 12.829723 96.454648 0.000000
31 31 1 15.338851 96.167348 0.000000
32 32 2 14.849964 96.058451 0.000000
33 33 1 13.434307 95.617720 0.000000
34 34 2 14.220685 95.197118 0.000000
35 35 1 13.216211 93.555823 0.000000
36 36 2 13.438480 93.244697 0.000000
37 37 1 12.565878 91.079975 0.000000
38 38 2 12.608148 92.241821 0.000000
39 39 1 13.115851 92.932109 0.000000
40 40 2 12.630337 93.770085 0.000000
41 41 1 33.544545 65.798613 0.000000
42 42 2 33.895320 66.347521 0.000000
43 43 1 35.523632 66.430261 0.000000
44 44 2 36.029793 67.215660 0.000000
45 45 1 36.587038 68.061811 0.000000
46 46 2 36.415247 68.056541 0.000000
47 47 1 37.064766 68.097147 0.000000
48 48 2 35.711213 69.130297 0.000000
49 49 1 37.006970 67.709045 0.000000
50 50 2 37.715863 68.735351 0.000000
51 51 1 38.211206 68.928731 0.000000
52 52 2 37.673947 68.842456 0.000000
53 53 1 37.020246 69.329767 0.000000
54 54 2 37.214475 69.642427 0.000000
55 55 1 37.530419 69.357118 0.000000
56 56 2 38.781170 69.136145 0.000000
57 57 1 38.369576 69.689199 0.000000
58 58 2 38.499316 68.511187 0.000000
59 59 1 39.573694 70.600037 0.000000
60 60 2 39.212470 70.503369 0.000000
61 61 1 121.004096 68.180721 0.000000
62 62 2 123.617675 68.653670 0.000000
63 63 1 1.660645 69.035086 0.000000
64 64 2 2.441104 69.883450 0.000000
65 65 1 2.494728 69.612201 0.000000
66 66 2 3.154888 68.652368 0.000000
67 67 1 2.664397 70.056200 0.000000
68 68 2 2.153252 70.622979 0.000000
69 69 1 2.514068 68.565069 0.000000
70 70 2 2.823474 69.663064 0.000000
71 71 1 2.894212 69.821157 0.000000
72 72 2 3.144057 70.553650 0.000000
73 73 1 3.461440 70.690909 0.000000
74 74 2 3.509050 71.848919 0.000000
75 75 1 4.676651 71.122126 0.000000
76 76 2 4.587548 69.952440 0.000000
77 77 1 6.775464 70.032608 0.000000
78 78 2 7.442300 71.591647 0.000000
79 79 1 7.705842 71.662680 0.000000
80 80 2 6.022553 71.480239 0.000000
81 81 1 100.114777 85.087888 0.000000
82 82 2 100.424606 85.433614 0.000000
83 83 1 99.480548 85.092810 0.000000
84 84 2 99.529332 84.199038 0.000000
85 85 1 98.189344 84.424041 0.000000
86 86 2 97.982194 84.455254 0.000000
87 87 1 99.220750 83.375451 0.000000
88 88 2 100.084662 84.166670 0.000000
89 89 1 101.577457 84.640908 0.000000
90 90 2 102.452029 84.287086 0.000000
91 91 1 105.115074 85.017825 0.000000
92 92 2 104.843951 85.476888 0.000000
93 93 1 105.912245 84.531034 0.000000
94 94 2 107.090959 84.993636 0.000000
95 95 1 106.968799 83.694476 0.000000
96 96 2 107.517155 85.522335 0.000000
97 97 1 107.507204 85.680142 0.000000
98 98 2 108.157708 84.601246 0.000000
99 99 1 108.591089 84.448571 0.000000
100 100 2 109.049553 82.671983 0.000000
101 101 1 54.999148 30.604922 0.000000
102 102 2 54.029798 30.467031 0.000000
103 103 1 53.806005 31.342440 0.000000
104 104 2 54.483861 31.752180 0.000000
105 105 1 55.253401 30.917501 0.000000
106 106 2 56.046651 30.793003 0.000000
107 107 1 54.432593 31.571177 0.000000
108 108 2 55.881973 32.483555 0.000000
109 109 1 55.068169 32.398593 0.000000
110 110 2 56.997672 33.403786 0.000000
111 111 1 56.177331 35.018383 0.000000
112 112 2 54.632041 35.661555 0.000000
113 113 1 53.539308 35.930560 0.000000
114 114 2 52.551772 34.044184 0.000000
115 115 1 53.042086 34.180534 0.000000
116 116 2 51.927878 34.227660 0.000000
117 117 1 52.422515 33.943807 0.000000
118 118 2 50.894215 34.044996 0.000000
119 119 1 50.422031 34.309554 0.000000
120 120 2 51.026472 34.556466 0.000000
121 121 1 116.622337 59.581269 0.000000
122 122 2 115.921494 58.045658 0.000000
123 123 1 116.897652 60.010298 0.000000
124 124 2 117.515555 59.241998 0.000000
125 125 1 118.070204 57.792691 0.000000
126 126 2 119.474387 57.819775 0.000000
127 127 1 121.150062 56.946081 0.000000
128 128 2 120.410040 58.404720 0.000000
129 129 1 122.611876 59.555239 0.000000
130 130 2 122.809515 58.514914 0.000000
131 131 1 122.467777 57.707802 0.000000
132 132 2 123.422845 57.731521 0.000000
133 133 1 121.834562 57.559134 0.000000
134 134 2 121.666461 58.317056 0.000000
135 135 1 121.382883 59.742815 0.000000
136 136 2 120.717842 58.061820 0.000000
137 137 1 119.831835 58.892756 0.000000
138 138 2 120.664978 58.748906 0.000000
139 139 1 119.728292 58.324069 0.000000
140 140 2 116.854757 57.592995 0.000000
141 141 1 71.930545 43.472898 0.000000
142 142 2 73.315525 43.036092 0.000000
143 143 1 71.327319 41.149908 0.000000
144 144 2 71.610487 41.402942 0.000000
145 145 1 71.806086 40.468189 0.000000
146 146 2 71.591733 39.764389 0.000000
147 147 1 71.625285 39.624488 0.000000
148 148 2 69.893494 39.726320 0.000000
149 149 1 71.203352 39.850049 0.000000
150 150 2 71.909485 40.044230 0.000000
151 151 1 71.530698 39.588182 0.000000
152 152 2 70.949657 39.265476 0.000000
153 153 1 70.123815 38.155164 0.000000
154 154 2 69.797860 36.631168 0.000000
155 155 1 71.140634 35.688468 0.000000
156 156 2 71.973014 37.282210 0.000000
157 157 1 73.136839 37.857533 0.000000
158 158 2 72.865136 38.448368 0.000000
159 159 1 71.837208 37.001579 0.000000
160 160 2 71.277044 34.776453 0.000000
161 161 1 49.322153 29.199162 0.000000
162 162 2 49.126242 27.230394 0.000000
163 163 1 50.060569 25.961536 0.000000
164 164 2 50.136840 26.030724 0.000000
165 165 1 49.937638 26.851451 0.000000
166 166 2 50.142189 25.992839 0.000000
167 167 1 50.188720 26.546695 0.000000
168 168 2 47.872486 26.106404 0.000000
169 169 1 47.151630 27.405588 0.000000
170 170 2 47.467507 27.579773 0.000000
171 171 1 48.755684 28.302367 0.000000
172 172 2 48.998980 29.189696 0.000000
173 173 1 47.163279 29.969887 0.000000
174 174 2 48.433735 29.487669 0.000000
175 175 1 48.706183 30.903932 0.000000
176 176 2 46.728244 31.459433 0.000000
177 177 1 47.489797 29.741166 0.000000
178 178 2 47.298913 29.894162 0.000000
179 179 1 46.582982 32.214769 0.000000
180 180 2 47.914198 32.225173 0.000000
181 181 1 20.147963 57.020392 0.000000
182 182 2 18.818630 57.060689 0.000000
183 183 1 17.195308 55.525444 0.000000
184 184 2 15.727614 55.834569 0.000000
185 185 1 16.264133 56.740005 0.000000
186 186 2 17.011064 56.720901 0.000000
187 187 1 17.260078 55.754480 0.000000
188 188 2 15.726436 55.570368 0.000000
189 189 1 13.952096 55.493413 0.000000
190 190 2 13.493278 56.127112 0.000000
191 191 1 12.366659 55.679928 0.000000
192 192 2 13.241269 57.570525 0.000000
193 193 1 12.517766 58.069940 0.000000
194 194 2 12.851442 57.610795 0.000000
195 195 1 12.073858 58.324888 0.000000
196 196 2 12.340763 59.436904 0.000000
197 197 1 13.684120 57.778906 0.000000
198 198 2 15.408589 58.853343 0.000000
199 199 1 14.413402 57.573834 0.000000
200 200 2 15.822654 56.331733 0.000000
201 201 1 60.621920 14.123853 0.000000
202 202 2 62.067651 13.262641 0.000000
203 203 1 61.331232 13.218171 0.000000
204 204 2 61.813741 13.980636 0.000000
205 205 1 61.118248 14.554215 0.000000
206 206 2 62.750644 14.185090 0.000000
207 207 1 63.488453 14.928025 0.000000
208 208 2 63.957510 14.367969 0.000000
209 209 1 64.589088 14.280389 0.000000
210 210 2 64.078282 14.255345 0.000000
211 211 1 63.783263 14.989522 0.000000
212 212 2 63.724091 16.798440 0.000000
213 213 1 64.032011 15.639759 0.000000
214 214 2 62.504273 16.219686 0.000000
215 215 1 61.681030 17.078919 0.000000
216 216 2 62.778751 17.999938 0.000000
217 217 1 62.108699 18.729724 0.000000
218 218 2 60.764525 17.747823 0.000000
219 219 1 59.647633 19.434762 0.000000
220 220 2 60.702423 18.804722 0.000000
221 221 1 34.194606 18.610862 0.000000
222 222 2 32.597103 20.433252 0.000000
223 223 1 32.339222 20.736159 0.000000
224 224 2 32.058763 20.425314 0.000000
225 225 1 31.783701 18.538287 0.000000
226 226 2 32.093458 18.435783 0.000000
227 227 1 31.840212 19.176307 0.000000
228 228 2 30.718689 19.678253 0.000000
229 229 1 32.617061 22.216775 0.000000
230 230 2 32.109401 21.069617 0.000000
231 231 1 33.732336 19.818972 0.000000
232 232 2 32.125189 19.808467 0.000000
233 233 1 32.389321 20.390755 0.000000
234 234 2 31.202778 21.431142 0.000000
235 235 1 30.377249 20.853900 0.000000
236 236 2 30.373491 20.485317 0.000000
237 237 1 30.899629 24.162117 0.000000
238 238 2 31.470964 23.154252 0.000000
239 239 1 30.796910 24.232051 0.000000
240 240 2 29.842420 22.982957 0.000000
241 241 1 83.486086 56.771747 0.000000
242 242 2 83.936183 54.701251 0.000000
243 243 1 83.783677 54.858560 0.000000
244 244 2 83.055090 54.779151 0.000000
245 245 1 80.596407 57.353587 0.000000
246 246 2 79.950950 57.499786 0.000000
247 247 1 80.011726 58.403371 0.000000
248 248 2 80.403498 56.016959 0.000000
249 249 1 80.047986 55.599509 0.000000
250 250 2 80.705857 55.266191 0.000000
251 251 1 80.612489 55.805262 0.000000
252 252 2 81.818330 56.629989 0.000000
253 253 1 80.629361 57.350080 0.000000
254 254 2 80.118332 59.345123 0.000000
255 255 1 79.839154 59.282394 0.000000
256 256 2 79.856228 56.667467 0.000000
257 257 1 79.786520 56.338520 0.000000
258 258 2 79.555509 54.662769 0.000000
259 259 1 78.838264 53.349125 0.000000
260 260 2 77.181889 53.130818 0.000000
261 261 1 63.991408 35.506619 0.000000
262 262 2 63.504101 36.904266 0.000000
263 263 1 64.423965 37.386824 0.000000
264 264 2 65.202411 37.005818 0.000000
265 265 1 64.932929 38.542403 0.000000
266 266 2 65.293923 38.285474 0.000000
267 267 1 65.305902 38.494785 0.000000
268 268 2 64.121450 38.267050 0.000000
269 269 1 64.409594 39.306128 0.000000
270 270 2 63.167066 39.034001 0.000000
271 271 1 64.244346 37.042343 0.000000
272 272 2 63.934194 38.480301 0.000000
273 273 1 64.548836 40.113384 0.000000
274 274 2 63.804001 42.481126 0.000000
275 275 1 63.344520 41.896230 0.000000
276 276 2 63.168686 43.001299 0.000000
277 277 1 62.223737 41.654641 0.000000
278 278 2 62.145515 42.012354 0.000000
279 279 1 63.391762 43.961637 0.000000
280 280 2 62.331737 42.869860 0.000000
281 281 1 27.764261 117.321826 0.000000
282 282 2 28.414823 119.218843 0.000000
283 283 1 27.063500 118.581289 0.000000
284 284 2 28.350252 118.437259 0.000000
285 285 1 29.023251 117.227159 0.000000
286 286 2 28.622478 115.520029 0.000000
287 287 1 30.315962 116.371070 0.000000
288 288 2 32.166062 116.139375 0.000000
289 289 1 33.280507 114.103274 0.000000
290 290 2 32.879680 113.717211 0.000000
291 291 1 32.555386 113.073664 0.000000
292 292 2 33.554934 111.971072 0.000000
293 293 1 33.092649 112.126521 0.000000
294 294 2 34.154717 112.674347 0.000000
295 295 1 34.961037 113.792098 0.000000
296 296 2 33.134262 113.328902 0.000000
297 297 1 32.646068 114.818668 0.000000
298 298 2 33.791826 115.153989 0.000000
299 299 1 35.802046 115.348456 0.000000
300 300 2 35.867252 115.041937 0.000000
301 301 1 120.757317 29.246039 0.000000
302 302 2 120.974481 28.050075 0.000000
303 303 1 121.684374 28.641632 0.000000
304 304 2 121.229884 28.081773 0.000000
305 305 1 122.343922 28.463002 0.000000
306 306 2 123.528409 29.802798 0.000000
307 307 1 0.318983 28.266744 0.000000
308 308 2 0.407417 28.841346 0.000000
309 309 1 0.248963 27.650180 0.000000
310 310 2 1.070656 27.756403 0.000000
311 311 1 2.680131 27.681290 0.000000
312 312 2 1.748417 26.811088 0.000000
313 313 1 1.240284 27.387433 0.000000
314 314 2 0.446755 28.757954 0.000000
315 315 1 1.339009 28.289764 0.000000
316 316 2 1.043125 29.986921 0.000000
317 317 1 2.151463 31.013943 0.000000
318 318 2 1.309994 32.308135 0.000000
319 319 1 1.376223 31.403924 0.000000
320 320 2 1.999294 31.083571 0.000000
321 321 1 124.158174 47.551662 0.000000
322 322 2 123.744071 48.075887 0.000000
323 323 1 123.697772 47.421179 0.000000
324 324 2 124.084852 46.841716 0.000000
325 325 1 123.367975 46.584635 0.000000
326 326 2 124.720256 46.461748 0.000000
327 327 1 1.139742 46.575303 0.000000
328 328 2 0.554747 45.423675 0.000000
329 329 1 122.482780 44.020374 0.000000
330 330 2 124.110676 45.147276 0.000000
331 331 1 124.633747 44.052388 0.000000
332 332 2 0.951337 45.649494 0.000000
333 333 1 1.553682 45.680165 0.000000
334 334 2 0.048180 47.050723 0.000000
335 335 1 0.442979 46.811822 0.000000
336 336 2 124.123299 46.173147 0.000000
337 337 1 0.384360 45.439372 0.000000
338 338 2 123.618943 45.421309 0.000000
339 339 1 124.857757 43.530525 0.000000
340 340 2 122.854463 42.793108 0.000000
341 341 1 51.964639 0.775415 0.000000
342 342 2 51.002862 0.376758 0.000000
343 343 1 50.119872 1.694749 0.000000
344 344 2 50.273624 1.928417 0.000000
345 345 1 51.043685 2.224975 0.000000
346 346 2 52.183548 1.305821 0.000000
347 347 1 51.556674 2.198578 0.000000
348 348 2 51.299189 2.755661 0.000000
349 349 1 52.737048 1.643008 0.000000
350 350 2 55.194248 0.585458 0.000000
351 351 1 55.943202 2.303181 0.000000
352 352 2 55.679815 1.475910 0.000000
353 353 1 55.910480 0.056847 0.000000
354 354 2 52.838683 0.956495 0.000000
355 355 1 52.745493 124.618778 0.000000
356 356 2 52.483278 0.306629 0.000000
357 357 1 53.358549 0.462673 0.000000
358 358 2 53.503389 0.863627 0.000000
359 359 1 53.960649 0.581438 0.000000
360 360 2 54.561003 1.784717 0.000000
361 361 1 97.971910 15.917247 0.000000
362 362 2 99.000211 15.536864 0.000000
363 363 1 99.037293 14.173210 0.000000
364 364 2 98.917643 13.880942 0.000000
365 365 1 99.517958 14.609277 0.000000
366 366 2 97.321510 15.797707 0.000000
367 367 1 97.136909 14.452323 0.000000
368 368 2 96.862591 14.028787 0.000000
369 369 1 97.475428 14.540274 0.000000
370 370 2 97.327518 14.471439 0.000000
371 371 1 96.899055 15.952841 0.000000
372 372 2 97.430385 16.066718 0.000000
373 373 1 96.629733 16.206990 0.000000
374 374 2 97.003843 16.431650 0.000000
375 375 1 97.342701 16.870037 0.000000
376 376 2 97.965857 17.304566 0.000000
377 377 1 98.468417 18.009409 0.000000
378 378 2 98.493093 17.836020 0.000000
379 379 1 97.930628 18.435892 0.000000
380 380 2 96.210435 17.904908 0.000000
381 381 1 49.459448 37.864814 0.000000
382 382 2 48.201183 38.060641 0.000000
383 383 1 49.199595 37.325423 0.000000
384 384 2 49.978218 38.023250 0.000000
385 385 1 48.991504 39.045161 0.000000
386 386 2 48.393409 40.629542 0.000000
387 387 1 48.600596 39.098559 0.000000
388 388 2 47.199647 38.321494 0.000000
389 389 1 48.457428 36.259136 0.000000
390 390 2 46.391465 35.423075 0.000000
391 391 1 47.066735 34.629071 0.000000
392 392 2 47.227261 33.808003 0.000000
393 393 1 47.800058 33.302256 0.000000
394 394 2 48.613614 32.241554 0.000000
395 395 1 50.345194 32.274233 0.000000
396 396 2 50.929362 30.855671 0.000000
397 397 1 52.105202 30.100068 0.000000
398 398 2 52.640012 28.578085 0.000000
399 399 1 52.317615 28.085194 0.000000
400 400 2 53.009966 28.411105 0.000000
401 401 1 49.218639 29.279035 0.000000
402 402 2 48.806346 27.665514 0.000000
403 403 1 48.416810 26.298525 0.000000
404 404 2 48.563986 25.599974 0.000000
405 405 1 48.770593 24.676200 0.000000
406 406 2 48.626457 24.429705 0.000000
407 407 1 47.342471 23.880024 0.000000
408 408 2 47.495248 23.553650 0.000000
409 409 1 46.832021 23.740996 0.000000
410 410 2 45.294273 23.067282 0.000000
411 411 1 43.117044 23.275352 0.000000
412 412 2 42.103650 22.576985 0.000000
413 413 1 41.376135 23.050741 0.000000
414 414 2 41.335655 24.149256 0.000000
415 415 1 39.923023 24.605120 0.000000
416 416 2 40.960565 25.913096 0.000000
417 417 1 41.527668 25.772896 0.000000
418 418 2 40.895330 27.019448 0.000000
419 419 1 41.607014 26.164915 0.000000
420 420 2 41.652566 26.105005 0.000000
421 421 1 61.553766 28.696721 0.000000
422 422 2 61.782314 30.195837 0.000000
423 423 1 60.277050 29.530473 0.000000
424 424 2 59.204179 29.984660 0.000000
425 425 1 58.835055 30.558823 0.000000
426 426 2 60.907833 29.977211 0.000000
427 427 1 61.400263 29.204917 0.000000
428 428 2 60.096113 29.017376 0.000000
429 429 1 60.315748 28.181828 0.000000
430 430 2 60.706264 28.802327 0.000000
431 431 1 60.984435 29.075028 0.000000
432 432 2 60.633595 28.707560 0.000000
433 433 1 61.842058 27.684993 0.000000
434 434 2 61.459517 28.173599 0.000000
435 435 1 59.678866 28.339316 0.000000
436 436 2 58.139800 26.813980 0.000000
437 437 1 59.459323 27.879689 0.000000
438 438 2 58.424693 27.002591 0.000000
439 439 1 58.130106 26.237128 0.000000
440 440 2 56.702075 25.656853 0.000000
441 441 1 33.892017 92.818637 0.000000
442 442 2 35.063133 93.326315 0.000000
443 443 1 35.629605 94.076108 0.000000
444 444 2 35.531915 93.856268 0.000000
445 445 1 35.827248 95.812276 0.000000
446 446 2 34.721171 95.802312 0.000000
447 447 1 35.624786 95.393872 0.000000
448 448 2 36.363856 96.118187 0.000000
449 449 1 36.756520 95.088912 0.000000
450 450 2 38.034776 94.727738 0.000000
451 451 1 38.351616 95.652549 0.000000
452 452 2 38.637107 96.860603 0.000000
453 453 1 39.894987 97.910111 0.000000
454 454 2 38.553275 97.974543 0.000000
455 455 1 40.162859 98.618028 0.000000
456 456 2 42.598528 98.860001 0.000000
457 457 1 43.297972 98.339570 0.000000
458 458 2 43.918268 97.306278 0.000000
459 459 1 42.462420 97.402768 0.000000
460 460 2 41.872978 96.530429 0.000000
461 461 1 50.679484 35.045076 0.000000
462 462 2 50.369716 34.559247 0.000000
463 463 1 51.957917 33.637577 0.000000
464 464 2 50.919952 33.038598 0.000000
465 465 1 50.156370 32.017527 0.000000
466 466 2 49.720203 32.490501 0.000000
467 467 1 50.134504 34.401862 0.000000
468 468 2 49.771470 33.129882 0.000000
469 469 1 49.908280 34.637936 0.000000
470 470 2 49.375513 33.201324 0.000000
471 471 1 49.280496 33.179149 0.000000
472 472 2 48.205093 33.854188 0.000000
473 473 1 47.215485 33.439289 0.000000
474 474 2 47.973279 35.952379 0.000000
475 475 1 48.844412 38.729298 0.000000
476 476 2 49.131689 39.407042 0.000000
477 477 1 48.847880 38.130595 0.000000
478 478 2 48.989180 38.251946 0.000000
479 479 1 48.213669 39.474261 0.000000
480 480 2 48.282598 39.833772 0.000000
481 481 1 8.267521 23.112509 0.000000
482 482 2 8.723047 24.199208 0.000000
483 483 1 7.916275 23.379879 0.000000
484 484 2 7.137303 22.517176 0.000000
485 485 1 6.823633 21.115989 0.000000
486 486 2 6.169354 20.922685 0.000000
487 487 1 5.323217 20.497253 0.000000
488 488 2 5.380396 20.854694 0.000000
489 489 1 5.984629 20.874899 0.000000
490 490 2 5.725995 22.668906 0.000000
491 491 1 5.751864 22.797883 0.000000
492 492 2 6.154573 23.945032 0.000000
493 493 1 5.652417 21.987390 0.000000
494 494 2 6.463314 22.991821 0.000000
495 495 1 5.870546 21.800858 0.000000
496 496 2 6.665888 22.654188 0.000000
497 497 1 5.456409 21.396466 0.000000
498 498 2 6.546812 23.808224 0.000000
499 499 1 8.043854 21.865929 0.000000
500 500 2 8.436039 22.019233 0.000000
501 501 1 41.852441 12.913996 0.000000
502 502 2 43.357821 13.498682 0.000000
503 503 1 44.131107 14.741447 0.000000
504 504 2 43.118953 13.984185 0.000000
505 505 1 43.502792 13.264821 0.000000
506 506 2 42.951582 15.657228 0.000000
507 507 1 41.688827 15.223343 0.000000
508 508 2 41.611085 15.035224 0.000000
509 509 1 41.026013 15.181443 0.000000
510 510 2 41.443379 15.261677 0.000000
511 511 1 41.252500 15.540482 0.000000
512 512 2 41.128618 16.078969 0.000000
513 513 1 41.156479 15.864914 0.000000
514 514 2 40.996902 16.199827 0.000000
515 515 1 40.857962 18.397488 0.000000
516 516 2 41.977937 17.421727 0.000000
517 517 1 41.274183 17.560835 0.000000
518 518 2 41.911799 18.334496 0.000000
519 519 1 41.628640 18.267611 0.000000
520 520 2 41.329683 18.229984 0.000000
521 521 1 86.814039 7.049628 0.000000
522 522 2 86.421313 7.718036 0.000000
523 523 1 86.597986 7.177436 0.000000
524 524 2 84.722131 7.376256 0.000000
525 525 1 83.998140 6.119501 0.000000
526 526 2 84.328753 5.284476 0.000000
527 527 1 83.380651 6.128970 0.000000
528 528 2 82.307868 6.428315 0.000000
529 529 1 82.722685 6.316489 0.000000
530 530 2 84.049486 6.317036 0.000000
531 531 1 82.942263 5.515535 0.000000
532 532 2 82.025535 6.597843 0.000000
533 533 1 82.760665 7.989328 0.000000
534 534 2 83.058268 7.229909 0.000000
535 535 1 83.135222 7.634131 0.000000
536 536 2 82.971696 5.374373 0.000000
537 537 1 84.233375 4.880581 0.000000
538 538 2 84.241178 4.013798 0.000000
539 539 1 84.838240 5.126746 0.000000
540 540 2 86.352806 6.960557 0.000000
541 541 1 23.407607 96.708688 0.000000
542 542 2 23.092674 95.618943 0.000000
543 543 1 24.191140 94.133463 0.000000
544 544 2 23.880178 93.895451 0.000000
545 545 1 23.852809 93.899956 0.000000
546 546 2 23.556391 92.786372 0.000000
547 547 1 24.129139 91.304821 0.000000
548 548 2 25.399030 92.445060 0.000000
549 549 1 24.192055 91.630037 0.000000
550 550 2 24.483752 91.373952 0.000000
551 551 1 23.860571 91.581716 0.000000
552 552 2 23.643099 92.733897 0.000000
553 553 1 22.574574 92.602163 0.000000
554 554 2 21.918836 93.378430 0.000000
555 555 1 23.016103 92.945969 0.000000
556 556 2 22.959505 93.000405 0.000000
557 557 1 21.996607 92.553024 0.000000
558 558 2 22.353217 91.990583 0.000000
559 559 1 22.915468 90.673405 0.000000
560 560 2 23.814307 91.900838 0.000000
561 561 1 4.354903 84.700384 0.000000
562 562 2 4.220946 82.705317 0.000000
563 563 1 4.294152 84.395572 0.000000
564 564 2 5.759043 83.611825 0.000000
565 565 1 5.093005 83.870178 0.000000
566 566 2 4.983521 82.712156 0.000000
567 567 1 4.454475 83.472904 0.000000
568 568 2 4.340887 83.597861 0.000000
569 569 1 3.729435 82.774714 0.000000
570 570 2 1.690582 83.026562 0.000000
571 571 1 124.187676 83.482104 0.000000
572 572 2 123.438137 85.073876 0.000000
573 573 1 123.355871 84.560068 0.000000
574 574 2 0.185356 85.006308 0.000000
575 575 1 123.481152 85.066963 0.000000
576 576 2 122.249637 87.005142 0.000000
577 577 1 123.677478 86.592359 0.000000
578 578 2 123.591686 84.965004 0.000000
579 579 1 124.911931 85.355558 0.000000
580 580 2 124.711508 84.702712 0.000000
581 581 1 60.329167 27.662898 0.000000
582 582 2 60.641304 28.524479 0.000000
583 583 1 61.928734 29.876814 0.000000
584 584 2 61.587713 29.938889 0.000000
585 585 1 60.335572 29.243740 0.000000
586 586 2 60.496222 31.043504 0.000000
587 587 1 59.078886 30.589293 0.000000
588 588 2 58.594192 30.498248 0.000000
589 589 1 58.800994 30.705801 0.000000
590 590 2 58.076196 30.726909 0.000000
591 591 1 59.059734 30.387773 0.000000
592 592 2 60.375391 30.709462 0.000000
593 593 1 61.132238 30.945279 0.000000
594 594 2 61.244977 30.850200 0.000000
595 595 1 62.281388 31.523146 0.000000
596 596 2 62.673871 30.743403 0.000000
597 597 1 62.154222 30.270950 0.000000
598 598 2 61.420052 30.510187 0.000000
599 599 1 60.910614 31.426947 0.000000
600 600 2 60.855936 31.636307 0.000000
601 601 1 120.463915 48.828639 0.000000
602 602 2 120.326264 48.659929 0.000000
603 603 1 119.929391 49.251226 0.000000
604 604 2 121.314653 46.834329 0.000000
605 605 1 121.699493 48.293914 0.000000
606 606 2 122.360320 48.530819 0.000000
607 607 1 122.015939 48.292197 0.000000
608 608 2 121.917052 47.214486 0.000000
609 609 1 122.556518 47.817447 0.000000
610 610 2 123.376559 44.652020 0.000000
611 611 1 123.999437 43.994135 0.000000
612 612 2 124.042689 42.844345 0.000000
613 613 1 123.118390 44.293904 0.000000
614 614 2 121.713448 43.024080 0.000000
615 615 1 122.724204 42.567626 0.000000
616 616 2 122.497682 43.072201 0.000000
617 617 1 121.304929 43.609633 0.000000
618 618 2 121.991677 44.848103 0.000000
619 619 1 120.940323 43.604077 0.000000
620 620 2 121.529387 43.977473 0.000000
621 621 1 119.518853 25.846132 0.000000
622 622 2 118.232923 27.557935 0.000000
623 623 1 116.281850 27.323726 0.000000
624 624 2 116.211070 26.610016 0.000000
625 625 1 114.435102 23.757026 0.000000
626 626 2 113.744030 26.201425 0.000000
627 627 1 114.964377 25.750573 0.000000
628 628 2 112.989730 27.210445 0.000000
629 629 1 113.763165 27.039788 0.000000
630 630 2 114.904507 27.500397 0.000000
631 631 1 115.423554 26.039234 0.000000
632 632 2 116.111530 25.787638 0.000000
633 633 1 116.251145 25.335158 0.000000
634 634 2 116.979162 25.332338 0.000000
635 635 1 116.795641 23.564487 0.000000
636 636 2 116.607706 24.401973 0.000000
637 637 1 116.831431 23.730834 0.000000
638 638 2 115.666209 24.313148 0.000000
639 639 1 117.391844 26.402089 0.000000
640 640 2 117.155600 24.252574 0.000000
641 641 1 109.673079 13.725294 0.000000
642 642 2 106.991460 14.042264 0.000000
643 643 1 105.621154 14.289387 0.000000
644 644 2 105.613631 15.755479 0.000000
645 645 1 105.256271 15.692782 0.000000
646 646 2 108.125471 13.745717 0.000000
647 647 1 107.666957 12.974367 0.000000
648 648 2 107.018213 12.997601 0.000000
649 649 1 106.894984 12.325275 0.000000
650 650 2 107.205622 11.678117 0.000000
651 651 1 107.730932 10.612503 0.000000
652 652 2 109.199282 13.062434 0.000000
653 653 1 108.080046 13.837916 0.000000
654 654 2 108.360782 14.904272 0.000000
655 655 1 108.508270 14.451804 0.000000
656 656 2 109.786711 14.546690 0.000000
657 657 1 108.317879 12.952284 0.000000
658 658 2 109.160977 13.802127 0.000000
659 659 1 108.565111 14.318883 0.000000
660 660 2 107.540381 14.527225 0.000000
661 661 1 106.851566 47.083269 0.000000
662 662 2 106.710488 46.351888 0.000000
663 663 1 107.541512 46.212018 0.000000
664 664 2 107.745853 48.328171 0.000000
665 665 1 106.080976 48.110478 0.000000
666 666 2 107.144553 49.542574 0.000000
667 667 1 107.774372 51.829784 0.000000
668 668 2 109.360913 52.070555 0.000000
669 669 1 109.574148 51.246712 0.000000
670 670 2 108.873818 50.843658 0.000000
671 671 1 109.857711 51.293339 0.000000
672 672 2 110.179604 49.629935 0.000000
673 673 1 110.059480 50.440914 0.000000
674 674 2 112.542764 51.125475 0.000000
675 675 1 111.430887 49.781017 0.000000
676 676 2 111.810926 49.304336 0.000000
677 677 1 110.955067 48.879963 0.000000
678 678 2 110.070903 48.634668 0.000000
679 679 1 109.547502 48.880054 0.000000
680 680 2 110.044497 47.758051 0.000000
681 681 1 53.774793 110.524586 0.000000
682 682 2 53.777197 110.110201 0.000000
683 683 1 53.917145 110.519768 0.000000
684 684 2 53.428008 110.537760 0.000000
685 685 1 52.822549 110.048447 0.000000
686 686 2 53.687825 106.574167 0.000000
687 687 1 53.439222 106.884341 0.000000
688 688 2 54.114222 105.815476 0.000000
689 689 1 52.686359 107.799489 0.000000
690 690 2 51.220441 106.517679 0.000000
691 691 1 52.327255 106.373936 0.000000
692 692 2 51.563095 106.522488 0.000000
693 693 1 50.574651 105.693024 0.000000
694 694 2 51.003681 105.997150 0.000000
695 695 1 50.414419 107.961160 0.000000
696 696 2 51.002293 107.736539 0.000000
697 697 1 51.562473 107.373954 0.000000
698 698 2 50.380804 107.456217 0.000000
699 699 1 51.196109 109.162993 0.000000
700 700 2 51.617730 110.943349 0.000000
701 701 1 68.139750 115.690509 0.000000
702 702 2 68.421331 117.148330 0.000000
703 703 1 69.408430 118.394010 0.000000
704 704 2 71.423332 118.485262 0.000000
705 705 1 70.871734 118.789058 0.000000
706 706 2 70.019972 117.953456 0.000000
707 707 1 70.497909 118.407280 0.000000
708 708 2 69.824098 117.219488 0.000000
709 709 1 69.962578 117.763798 0.000000
710 710 2 69.487572 118.249812 0.000000
711 711 1 70.165245 118.528313 0.000000
712 712 2 68.318235 118.517629 0.000000
713 713 1 67.263276 116.706216 0.000000
714 714 2 66.833846 116.253652 0.000000
715 715 1 66.886644 116.002695 0.000000
716 716 2 65.023102 114.700751 0.000000
717 717 1 64.619170 113.310619 0.000000
718 718 2 63.983855 113.511671 0.000000
719 719 1 64.630760 112.877025 0.000000
720 720 2 66.045234 113.126450 0.000000
721 721 1 0.490009 69.522091 0.000000
722 722 2 0.201765 69.820566 0.000000
723 723 1 2.039846 69.852331 0.000000
724 724 2 2.220301 69.912154 0.000000
725 725 1 124.832627 69.924598 0.000000
726 726 2 0.006278 69.573728 0.000000
727 727 1 124.174152 69.701790 0.000000
728 728 2 124.773394 69.714637 0.000000
729 729 1 1.405680 70.723723 0.000000
730 730 2 123.720265 68.634067 0.000000
731 731 1 122.557938 69.397467 0.000000
732 732 2 123.737276 67.982353 0.000000
733 733 1 123.789374 67.831415 0.000000
734 734 2 123.621320 68.621661 0.000000
735 735 1 123.370769 68.121812 0.000000
736 736 2 124.119499 68.551449 0.000000
737 737 1 0.001164 67.596561 0.000000
738 738 2 124.920599 66.338795 0.000000
739 739 1 0.675736 65.714571 0.000000
740 740 2 0.443504 65.443866 0.000000
741 741 1 120.686736 31.081325 0.000000
742 742 2 121.523378 30.425065 0.000000
743 743 1 120.973106 29.353581 0.000000
744 744 2 120.297863 29.188284 0.000000
745 745 1 120.646250 27.595631 0.000000
746 746 2 120.063531 27.019697 0.000000
747 747 1 119.514545 26.089891 0.000000
748 748 2 118.443213 26.913361 0.000000
749 749 1 119.138961 27.700899 0.000000
750 750 2 118.211822 27.439642 0.000000
751 751 1 115.084038 27.354130 0.000000
752 752 2 114.646021 27.449934 0.000000
753 753 1 115.321334 25.538862 0.000000
754 754 2 115.260455 25.335587 0.000000
755 755 1 114.361220 26.442762 0.000000
756 756 2 113.565439 26.237851 0.000000
757 757 1 113.770254 24.650336 0.000000
758 758 2 113.018037 22.817485 0.000000
759 759 1 114.090344 23.170908 0.000000
760 760 2 115.255763 24.746674 0.000000
761 761 1 45.973116 121.612125 0.000000
762 762 2 46.539174 120.334610 0.000000
763 763 1 46.321821 121.394237 0.000000
764 764 2 46.432618 119.848466 0.000000
765 765 1 45.072763 120.929193 0.000000
766 766 2 46.580032 121.102028 0.000000