ITEM: TIMESTEP
1200000
ITEM: NUMBER OF ATOMS
1000
ITEM: BOX BOUNDS pp pp pp
0.000000 20.000000
0.000000 20.000000
0.000000 20.000000
ITEM: ATOMS id type mol x y z q
1 1 1  15.066857 0.237710 3.075642  0.000000
2 1 2  5.400927 5.953683 1.871280  0.000000
3 1 3  0.217189 13.531003 10.076949  0.000000
4 1 4  19.957937 5.705317 17.851408  0.000000
5 1 5  16.190092 19.034008 3.022151  0.000000
6 1 6  10.141366 0.113887 19.210770  0.000000
7 1 7  13.572653 12.316635 12.389898  0.000000
8 1 8  15.354221 15.435648 15.816446  0.000000
9 1 9  19.749311 14.317567 13.845545  0.000000
10 1 10  4.632080 4.505166 8.561484  0.000000
11 1 11  3.638014 3.993868 19.235773  0.000000
12 1 12  4.809066 17.418474 3.273344  0.000000
13 1 13  19.714804 2.487653 5.776765  0.000000
14 1 14  12.265373 1.756706 19.770157  0.000000
15 1 15  18.594393 17.773951 16.860157  0.000000
16 1 16  7.481293 13.564800 7.525280  0.000000
17 1 17  19.288273 8.713832 14.152083  0.000000
18 1 18  15.312750 8.833428 8.923894  0.000000
19 1 19  11.521814 10.155915 1.808457  0.000000
20 1 20  15.514638 6.698036 10.223828  0.000000
21 1 21  15.355909 0.697644 12.943354  0.000000
22 1 22  0.912425 19.294645 14.470654  0.000000
23 1 23  4.555001 12.376143 8.905965  0.000000
24 1 24  18.635433 12.023182 2.188675  0.000000
25 1 25  8.666379 12.422063 18.823376  0.000000
26 1 26  8.186066 12.885858 15.874293  0.000000
27 1 27  1.022631 14.293474 2.624454  0.000000
28 1 28  16.500021 18.953135 5.527595  0.000000
29 1 29  12.738884 2.310610 12.724504  0.000000
30 1 30  9.126081 19.079090 11.585665  0.000000
31 1 31  11.717147 16.749046 6.721144  0.000000
32 1 32  18.541946 9.904222 17.353645  0.000000
33 1 33  4.567072 0.640352 18.399847  0.000000
34 1 34  14.938863 7.185182 15.321172  0.000000
35 1 35  3.795085 7.885905 5.219576  0.000000
36 1 36  7.059319 19.487793 1.240525  0.000000
37 1 37  1.317104 9.050201 4.876311  0.000000
38 1 38  15.701325 7.779390 2.518333  0.000000
39 1 39  10.382823 7.562088 16.045498  0.000000
40 1 40  5.192168 17.538280 11.141147  0.000000
41 1 41  19.203770 4.251706 7.482433  0.000000
42 1 42  15.936461 17.172585 7.170028  0.000000
43 1 43  12.146547 12.398568 14.283632  0.000000
44 1 44  7.425134 0.238283 8.939951  0.000000
45 1 45  5.730887 18.159491 17.999651  0.000000
46 1 46  10.624780 8.663566 2.152384  0.000000
47 1 47  11.288854 19.231342 3.108587  0.000000
48 1 48  15.511728 18.398928 19.086370  0.000000
49 1 49  5.504958 8.299546 4.014346  0.000000
50 1 50  4.105600 4.381444 8.210368  0.000000
51 1 51  9.461337 11.462916 10.283427  0.000000
52 1 52  4.050967 11.241634 16.542974  0.000000
53 1 53  5.069142 8.731606 7.129881  0.000000
54 1 54  18.831793 18.578451 2.427359  0.000000
55 1 55  15.991663 10.598616 2.020909  0.000000
56 1 56  1.107929 17.642254 0.120545  0.000000
57 1 57  14.661489 19.379511 12.851940  0.000000
58 1 58  16.669092 2.324122 19.554607  0.000000
59 1 59  14.769197 8.243416 4.235382  0.000000
60 1 60  17.906012 15.126433 4.748259  0.000000
61 1 61  2.355340 12.507586 15.666420  0.000000
62 1 62  14.964911 7.785525 8.472208  0.000000
63 1 63  1.452711 12.689089 1.484025  0.000000
64 1 64  14.019079 16.132580 12.038214  0.000000
65 1 65  6.404529 9.817599 18.698978  0.000000
66 1 66  9.965544 1.367588 12.508465  0.000000
67 1 67  12.290166 8.041162 4.816938  0.000000
68 1 68  8.227764 4.801409 16.156590  0.000000
69 1 69  3.738330 7.908974 15.920041  0.000000
70 1 70  2.400713 17.448961 9.739873  0.000000
71 1 71  3.658836 14.011992 14.796949  0.000000
72 1 72  17.534369 18.954575 0.055613  0.000000
73 1 73  4.841262 5.097608 8.254396  0.000000
74 1 74  0.877580 16.655895 5.225607  0.000000
75 1 75  8.219652 5.529386 16.882370  0.000000
76 1 76  7.522946 12.824685 1.110295  0.000000
77 1 77  15.045674 2.772151 2.235835  0.000000
78 1 78  17.056509 12.909804 19.162235  0.000000
79 1 79  1.225582 5.347518 12.284177  0.000000
80 1 80  12.347699 11.227133 7.210040  0.000000
81 1 81  11.485982 14.638843 10.252627  0.000000
82 1 82  4.695835 1.099807 6.300015  0.000000
83 1 83  17.207737 16.510233 3.339444  0.000000
84 1 84  6.640877 1.312380 18.003796  0.000000
85 1 85  18.186735 10.048011 7.494995  0.000000
86 1 86  6.228670 17.269602 4.384609  0.000000
87 1 87  4.115635 1.193595 6.862242  0.000000
88 1 88  12.402708 16.616472 13.689454  0.000000
89 1 89  19.257893 12.677784 10.397768  0.000000
90 1 90  18.396482 8.709363 9.813937  0.000000
91 1 91  17.448416 19.811174 7.493649  0.000000
92 1 92  15.839337 13.125829 7.247505  0.000000
93 1 93  17.154268 7.589955 11.686434  0.000000
94 1 94  12.068204 10.382970 13.310486  0.000000
95 1 95  3.640486 12.848320 13.084465  0.000000
96 1 96  19.412165 11.339889 6.879922  0.000000
97 1 97  8.660144 5.233761 13.541650  0.000000
98 1 98  19.762274 4.898704 9.786913  0.000000
99 1 99  0.946539 4.801869 5.969637  0.000000
100 1 100  7.846285 13.532650 16.887861  0.000000
101 1 101  7.186573 17.298208 10.891513  0.000000
102 1 102  2.604440 4.359016 14.738716  0.000000
103 1 103  17.327051 16.385202 16.590910  0.000000
104 1 104  0.769227 19.530479 9.936250  0.000000
105 1 105  8.406563 7.617034 10.504491  0.000000
106 1 106  11.870503 18.512354 18.476255  0.000000
107 1 107  7.569458 14.991808 11.130420  0.000000
108 1 108  16.534323 3.081888 7.059234  0.000000
109 1 109  3.150052 9.951409 14.066895  0.000000
110 1 110  15.962663 11.451844 8.769907  0.000000
111 1 111  17.711187 19.712467 1.042578  0.000000
112 1 112  8.719866 9.045926 0.716662  0.000000
113 1 113  4.535237 5.686543 13.447415  0.000000
114 1 114  2.634515 0.555204 9.982140  0.000000
115 1 115  4.775679 16.619181 15.226328  0.000000
116 1 116  17.151871 6.768210 12.717970  0.000000
117 1 117  16.276291 12.052232 14.604377  0.000000
118 1 118  16.663059 19.338522 14.037389  0.000000
119 1 119  3.803760 9.292245 19.607037  0.000000
120 1 120  10.579653 10.894917 13.303601  0.000000
121 1 121  0.502211 17.660255 5.509552  0.000000
122 1 122  3.391690 19.981560 18.271872  0.000000
123 1 123  6.354084 7.629071 17.234892  0.000000
124 1 124  15.008067 10.592515 3.493935  0.000000
125 1 125  10.207084 10.612042 19.083359  0.000000
126 1 126  14.345172 14.341283 2.939858  0.000000
127 1 127  1.097463 5.606911 10.185275  0.000000
128 1 128  18.859196 16.504137 2.011522  0.000000
129 1 129  4.175581 6.075715 4.799604  0.000000
130 1 130  8.476595 4.731163 2.712936  0.000000
131 1 131  14.232969 12.191977 17.533661  0.000000
132 1 132  12.392510 4.616166 13.680369  0.000000
133 1 133  10.572507 12.196658 15.123903  0.000000
134 1 134  1.533944 14.466532 4.983083  0.000000
135 1 135  2.848237 12.995254 9.159868  0.000000
136 1 136  2.816357 15.891829 13.963712  0.000000
137 1 137  13.390975 11.423718 14.622684  0.000000
138 1 138  2.575818 5.864613 3.908413  0.000000
139 1 139  6.261602 5.286840 11.373796  0.000000
140 1 140  11.435891 8.177171 7.679187  0.000000
141 1 141  2.216167 0.972568 14.666079  0.000000
142 1 142  13.994241 19.168823 18.724846  0.000000
143 1 143  7.083344 14.847642 17.341932  0.000000
144 1 144  13.525139 1.584003 10.422861  0.000000
145 1 145  17.247236 12.010946 8.643337  0.000000
146 1 146  3.769423 17.390604 10.288775  0.000000
147 1 147  8.590034 2.310332 19.710720  0.000000
148 1 148  15.476469 1.947454 12.427077  0.000000
149 1 149  4.980837 5.582297 12.187297  0.000000
150 1 150  16.853552 15.636094 11.293574  0.000000
151 1 151  4.233935 8.885324 4.977330  0.000000
152 1 152  14.883968 16.389729 14.921676  0.000000
153 1 153  5.362232 10.634274 2.550502  0.000000
154 1 154  9.947001 1.289809 6.677707  0.000000
155 1 155  11.992432 8.264928 18.714806  0.000000
156 1 156  18.839510 4.440931 19.811852  0.000000
157 1 157  3.145490 3.816187 1.970924  0.000000
158 1 158  9.590812 3.598993 11.912706  0.000000
159 1 159  3.358216 10.882019 3.820134  0.000000
160 1 160  0.429984 15.294842 19.907907  0.000000
161 1 161  5.558564 16.948347 14.114722  0.000000
162 1 162  3.925231 16.418137 5.855548  0.000000
163 1 163  3.734606 18.700802 12.646838  0.000000
164 1 164  11.101458 6.818124 6.205557  0.000000
165 1 165  18.326630 2.071345 0.051124  0.000000
166 1 166  8.572577 10.989694 3.069925  0.000000
167 1 167  6.290663 1.535077 13.556354  0.000000
168 1 168  7.605083 17.116472 6.502812  0.000000
169 1 169  16.388138 1.599304 12.134251  0.000000
170 1 170  17.971722 12.515393 2.404835  0.000000
171 1 171  11.433327 19.251553 6.212062  0.000000
172 1 172  19.627415 4.611925 5.214410  0.000000
173 1 173  18.856016 18.769968 0.596845  0.000000
174 1 174  2.056294 17.582611 5.464817  0.000000
175 1 175  18.799002 19.327911 16.988592  0.000000
176 1 176  7.440640 6.313147 1.535852  0.000000
177 1 177  3.315540 13.087379 16.461037  0.000000
178 1 178  10.058383 2.998783 0.741058  0.000000
179 1 179  0.569244 15.136720 15.979867  0.000000
180 1 180  5.439063 14.583488 8.673679  0.000000
181 1 181  19.334108 16.944563 13.967816  0.000000
182 1 182  3.358348 14.397225 15.499888  0.000000
183 1 183  17.535063 12.654796 15.069720  0.000000
184 1 184  8.317074 13.846675 9.359737  0.000000
185 1 185  11.299846 2.353923 5.781174  0.000000
186 1 186  8.882781 8.405397 8.733686  0.000000
187 1 187  7.492032 8.387676 4.163853  0.000000
188 1 188  18.627037 9.421725 15.565195  0.000000
189 1 189  19.992630 4.628150 15.881709  0.000000
190 1 190  9.846583 6.594761 19.581972  0.000000
191 1 191  9.925803 13.363201 9.352312  0.000000
192 1 192  11.811854 11.085217 10.021094  0.000000
193 1 193  19.875771 0.421614 16.255575  0.000000
194 1 194  14.259261 5.631557 13.458744  0.000000
195 1 195  0.180023 14.809211 3.852192  0.000000
196 1 196  13.786589 13.258718 3.268619  0.000000
197 1 197  13.585756 2.005410 1.119351  0.000000
198 1 198  15.313459 16.228571 13.006590  0.000000
199 1 199  17.223928 1.964824 10.620946  0.000000
200 1 200  7.392942 12.379315 19.340912  0.000000
201 1 201  12.978544 2.864957 14.208395  0.000000
202 1 202  4.000749 7.478706 12.215575  0.000000
203 1 203  2.018310 2.776646 13.220497  0.000000
204 1 204  2.573231 12.107638 17.471003  0.000000
205 1 205  15.268468 7.975997 8.836618  0.000000
206 1 206  15.872352 10.172353 0.184312  0.000000
207 1 207  10.909826 8.407958 17.387592  0.000000
208 1 208  18.335791 9.523474 9.088402  0.000000
209 1 209  11.057201 3.272998 4.428057  0.000000
210 1 210  1.935453 12.601534 3.216535  0.000000
211 1 211  17.069239 3.823149 18.381393  0.000000
212 1 212  11.771291 1.614713 8.634510  0.000000
213 1 213  4.013932 11.801955 6.566422  0.000000
214 1 214  11.548967 9.210382 1.183022  0.000000
215 1 215  5.659744 19.411980 13.286111  0.000000
216 1 216  11.867590 1.097009 16.691957  0.000000
217 1 217  15.971174 8.947046 10.649146  0.000000
218 1 218  2.662117 14.062598 13.183113  0.000000
219 1 219  12.955725 18.348436 12.317335  0.000000
220 1 220  9.215868 10.920419 3.952062  0.000000
221 1 221  11.142969 10.436396 18.501978  0.000000
222 1 222  13.761218 18.081682 13.091841  0.000000
223 1 223  5.060537 19.417706 17.542204  0.000000
224 1 224  1.067296 19.746416 14.065585  0.000000
225 1 225  13.591211 13.478714 9.336243  0.000000
226 1 226  12.223664 15.139680 9.102632  0.000000
227 1 227  14.584170 1.942674 8.594247  0.000000
228 1 228  17.323837 15.408038 9.691966  0.000000
229 1 229  1.497749 8.551819 0.819201  0.000000
230 1 230  17.928986 13.972531 0.714963  0.000000
231 1 231  6.659789 6.068645 13.883565  0.000000
232 1 232  2.840378 1.859889 1.393175  0.000000
233 1 233  12.537085 10.314034 18.045570  0.000000
234 1 234  6.355988 7.543612 3.232035  0.000000
235 1 235  13.991734 4.844121 10.724492  0.000000
236 1 236  14.492902 6.908115 18.305370  0.000000
237 1 237  2.245993 1.424568 4.201108  0.000000
238 1 238  13.182935 13.966765 18.076551  0.000000
239 1 239  17.879280 14.814619 5.994719  0.000000
240 1 240  11.644830 0.335766 13.551687  0.000000
241 1 241  4.074780 19.680067 1.529950  0.000000
242 1 242  10.680685 17.074633 8.341937  0.000000
243 1 243  14.520301 0.841007 10.567983  0.000000
244 1 244  10.072355 18.957394 17.657948  0.000000
245 1 245  10.180970 8.319689 9.584738  0.000000
246 1 246  2.318230 17.905436 19.340103  0.000000
247 1 247  5.260505 13.578523 16.825752  0.000000
248 1 248  15.952527 8.186439 17.396166  0.000000
249 1 249  15.319128 15.043095 2.285339  0.000000
250 1 250  7.092558 11.965362 3.197119  0.000000
251 1 251  18.929459 19.993858 12.576217  0.000000
252 1 252  17.236839 9.265103 14.954984  0.000000
253 1 253  5.420733 10.659514 13.963127  0.000000
254 1 254  18.040190 10.164302 7.052405  0.000000
255 1 255  7.753640 0.683865 16.917023  0.000000
256 1 256  16.852324 16.725569 11.368990  0.000000
257 1 257  3.503195 9.247437 4.845068  0.000000
258 1 258  4.233277 17.134130 11.784129  0.000000
259 1 259  14.775892 0.061166 7.462825  0.000000
260 1 260  14.791966 13.087263 15.581310  0.000000
261 1 261  7.982994 7.076152 17.048508  0.000000
262 1 262  0.590135 6.925205 0.372231  0.000000
263 1 263  18.524210 5.715776 1.351707  0.000000
264 1 264  7.122878 15.992388 13.822402  0.000000
265 1 265  4.254696 16.824434 18.575087  0.000000
266 1 266  16.771582 5.269210 8.829288  0.000000
267 1 267  2.189416 19.309347 0.375150  0.000000
268 1 268  8.026989 14.180069 6.864969  0.000000
269 1 269  10.402215 13.999523 4.022806  0.000000
270 1 270  5.837435 18.700985 7.260833  0.000000
271 1 271  8.148394 7.575996 8.767416  0.000000
272 1 272  6.738688 15.772744 19.961975  0.000000
273 1 273  7.129310 2.985997 13.962369  0.000000
274 1 274  17.017591 5.491718 8.047743  0.000000
275 1 275  8.140902 10.817565 19.789005  0.000000
276 1 276  15.064003 4.178851 7.423397  0.000000
277 1 277  14.440186 18.068737 15.969470  0.000000
278 1 278  2.481668 14.483239 0.113284  0.000000
279 1 279  15.079912 13.261230 7.266488  0.000000
280 1 280  17.755867 11.969509 9.321559  0.000000
281 1 281  13.988421 13.923777 19.323814  0.000000
282 1 282  19.163023 17.317518 19.442812  0.000000
283 1 283  17.382788 0.593690 3.877908  0.000000
284 1 284  17.106274 19.413277 9.521307  0.000000
285 1 285  1.870831 12.691138 1.283637  0.000000
286 1 286  6.083688 7.539294 8.133561  0.000000
287 1 287  2.336395 16.187191 14.670612  0.000000
288 1 288  11.254023 7.158375 11.893786  0.000000
289 1 289  1.888459 11.455448 13.928471  0.000000
290 1 290  12.840343 14.860713 8.765273  0.000000
291 1 291  5.850130 8.709739 3.216936  0.000000
292 1 292  12.601807 9.539388 3.814584  0.000000
293 1 293  12.017757 1.051622 16.206635  0.000000
294 1 294  8.872757 0.912033 19.661917  0.000000
295 1 295  2.429171 1.431541 13.437033  0.000000
296 1 296  4.544129 14.487954 11.230104  0.000000
297 1 297  19.602297 6.318410 1.173744  0.000000
298 1 298  12.000943 18.747536 10.096527  0.000000
299 1 299  13.129286 8.853014 14.029916  0.000000
300 1 300  14.197331 1.600879 2.120862  0.000000
301 1 301  17.480433 5.788076 19.026392  0.000000
302 1 302  11.432646 17.858835 0.440060  0.000000
303 1 303  1.106555 18.803564 3.349879  0.000000
304 1 304  1.285263 3.626094 11.960011  0.000000
305 1 305  15.343697 3.274060 12.688826  0.000000
306 1 306  0.605673 10.859075 14.555702  0.000000
307 1 307  18.370283 5.833291 18.981251  0.000000
308 1 308  4.360643 5.817178 18.001236  0.000000
309 1 309  7.995751 1.015950 2.845988  0.000000
310 1 310  7.592078 14.290994 3.970705  0.000000
311 1 311  4.603988 4.895148 12.808235  0.000000
312 1 312  1.627775 18.561907 11.021585  0.000000
313 1 313  16.326883 6.992436 5.737081  0.000000
314 1 314  14.838684 6.068908 12.032888  0.000000
315 1 315  14.093159 0.705438 13.350021  0.000000
316 1 316  10.095863 5.532150 13.626617  0.000000
317 1 317  1.908061 18.979670 9.307498  0.000000
318 1 318  4.543151 1.401270 15.600963  0.000000
319 1 319  6.208679 3.362050 19.864677  0.000000
320 1 320  13.794476 11.706710 3.761317  0.000000
321 1 321  18.790905 7.501977 9.674397  0.000000
322 1 322  16.865110 14.675915 14.953291  0.000000
323 1 323  6.947009 2.564203 9.980711  0.000000
324 1 324  5.220382 12.057699 1.653222  0.000000
325 1 325  0.145064 1.993923 2.358506  0.000000
326 1 326  8.217274 6.445788 12.647326  0.000000
327 1 327  14.523515 3.447567 10.118307  0.000000
328 1 328  19.593876 4.959951 4.725079  0.000000
329 1 329  7.947606 16.211472 15.840023  0.000000
330 1 330  5.201891 11.451551 1.586003  0.000000
331 1 331  3.349885 3.049066 18.859037  0.000000
332 1 332  17.448378 14.671368 19.295752  0.000000
333 1 333  0.539259 11.200150 3.619848  0.000000
334 1 334  13.484254 18.504671 19.562393  0.000000
335 1 335  10.780961 12.043869 1.000099  0.000000
336 1 336  11.994835 9.942616 11.657361  0.000000
337 1 337  11.464921 7.535763 19.019215  0.000000
338 1 338  15.601048 8.348426 18.802803  0.000000
339 1 339  5.344291 17.978140 5.304691  0.000000
340 1 340  6.642774 15.289366 6.205025  0.000000
341 1 341  18.941507 8.613127 10.813569  0.000000
342 1 342  9.169580 1.766149 3.817698  0.000000
343 1 343  7.788326 16.384287 1.704474  0.000000
344 1 344  3.904567 13.097923 18.181387  0.000000
345 1 345  0.060102 0.621859 12.124956  0.000000
346 1 346  18.300047 6.846066 6.461717  0.000000
347 1 347  15.519714 8.262419 4.507793  0.000000
348 1 348  17.943287 12.911646 14.891649  0.000000
349 1 349  5.494955 11.841930 5.545058  0.000000
350 1 350  4.660651 14.089336 13.643372  0.000000
351 1 351  15.493364 7.725762 11.002141  0.000000
352 1 352  15.913472 5.185517 14.939656  0.000000
353 1 353  3.729810 16.969713 17.476849  0.000000
354 1 354  13.407770 12.942928 11.801019  0.000000
355 1 355  14.520857 11.829890 13.872891  0.000000
356 1 356  5.987219 0.744395 8.747467  0.000000
357 1 357  9.361588 1.031693 0.528547  0.000000
358 1 358  5.969641 8.914410 11.040679  0.000000
359 1 359  9.788248 10.921573 9.448732  0.000000
360 1 360  7.897060 17.599276 14.675391  0.000000
361 1 361  9.827491 7.640335 2.031578  0.000000
362 1 362  5.648504 17.358200 13.131273  0.000000
363 1 363  19.961298 18.622690 15.571074  0.000000
364 1 364  13.876020 19.292101 7.530837  0.000000
365 1 365  0.616829 6.895827 19.917467  0.000000
366 1 366  5.281767 3.213172 17.271441  0.000000
367 1 367  17.217510 7.140855 6.904916  0.000000
368 1 368  5.901281 1.759420 1.275658  0.000000
369 1 369  10.815341 4.055133 10.390801  0.000000
370 1 370  7.498291 8.239258 7.785734  0.000000
371 1 371  1.609904 3.948400 1.004594  0.000000
372 1 372  8.519403 8.391797 15.601686  0.000000
373 1 373  19.351837 0.425735 19.731928  0.000000
374 1 374  1.444290 11.501026 3.554225  0.000000
375 1 375  4.656004 3.093457 4.393784  0.000000
376 1 376  5.555936 12.705510 14.648787  0.000000
377 1 377  18.520041 10.312896 8.146871  0.000000
378 1 378  3.159091 17.764381 6.688701  0.000000
379 1 379  5.179475 4.146900 19.025457  0.000000
380 1 380  16.892864 18.785900 10.943037  0.000000
381 1 381  16.718555 6.347022 14.496717  0.000000
382 1 382  19.438372 13.892508 9.772482  0.000000
383 1 383  12.487386 13.995611 4.840738  0.000000
384 1 384  8.910520 3.481766 0.634077  0.000000
385 1 385  2.848025 0.544487 4.428391  0.000000
386 1 386  16.634892 6.253576 15.299723  0.000000
387 1 387  15.891757 0.076266 19.852102  0.000000
388 1 388  1.616775 15.651919 8.315066  0.000000
389 1 389  15.422808 13.197662 1.731118  0.000000
390 1 390  6.283192 5.718039 12.792524  0.000000
391 1 391  18.455990 9.791079 11.061082  0.000000
392 1 392  18.820126 19.906132 10.268315  0.000000
393 1 393  7.390910 18.062386 10.390759  0.000000
394 1 394  18.691900 4.594264 18.445665  0.000000
395 1 395  2.629596 1.780734 18.400480  0.000000
396 1 396  11.234134 18.920588 0.460184  0.000000
397 1 397  18.046505 1.927185 18.395426  0.000000
398 1 398  9.567805 15.735459 15.949093  0.000000
399 1 399  18.653769 17.164700 2.706450  0.000000
400 1 400  19.302673 5.646160 12.917076  0.000000
401 1 401  11.335711 19.995277 6.621386  0.000000
402 1 402  8.044435 6.116404 11.972180  0.000000
403 1 403  10.662541 5.808211 17.100479  0.000000
404 1 404  4.861481 9.659576 19.990185  0.000000
405 1 405  17.070286 18.370533 3.384017  0.000000
406 1 406  19.782528 5.486557 3.335829  0.000000
407 1 407  17.063757 13.575847 17.930693  0.000000
408 1 408  16.104582 19.280878 12.718732  0.000000
409 1 409  13.820319 9.434901 4.008541  0.000000
410 1 410  3.691496 0.499394 11.761508  0.000000
411 1 411  10.717907 13.151531 19.251360  0.000000
412 1 412  14.218334 3.360524 14.469817  0.000000
413 1 413  10.986683 6.129294 5.838091  0.000000
414 1 414  15.482395 8.630405 13.766818  0.000000
415 1 415  8.458822 18.599236 18.211834  0.000000
416 1 416  11.998355 0.032434 8.232465  0.000000
417 1 417  7.699596 19.767647 4.841512  0.000000
418 1 418  8.108422 6.154739 11.326311  0.000000
419 1 419  2.567794 17.423756 9.063530  0.000000
420 1 420  18.378778 11.948709 18.098879  0.000000
421 1 421  7.893087 3.258302 1.308472  0.000000
422 1 422  2.147257 18.921211 12.434631  0.000000
423 1 423  12.952032 3.336475 0.528346  0.000000
424 1 424  1.524837 18.434223 13.294716  0.000000
425 1 425  18.651276 3.060036 5.137098  0.000000
426 1 426  9.580476 12.777660 15.151922  0.000000
427 1 427  4.897889 12.246286 9.621489  0.000000
428 1 428  18.047752 14.193026 18.154551  0.000000
429 1 429  10.923647 2.696740 19.678286  0.000000
430 1 430  19.292423 1.790164 0.105382  0.000000
431 1 431  15.594227 8.259088 5.910008  0.000000
432 1 432  12.272508 6.704932 17.488787  0.000000
433 1 433  2.256604 4.049411 6.998013  0.000000
434 1 434  16.254547 5.246264 1.910701  0.000000
435 1 435  5.903001 8.219258 18.072262  0.000000
436 1 436  15.265446 13.079061 17.039356  0.000000
437 1 437  2.279284 3.042509 3.460069  0.000000
438 1 438  18.338654 1.898723 19.095047  0.000000
439 1 439  2.221525 19.441442 6.032562  0.000000
440 1 440  10.246969 7.190725 17.629519  0.000000
441 1 441  13.594888 11.023788 17.787752  0.000000
442 1 442  3.602866 13.027159 8.536593  0.000000
443 1 443  3.409568 7.888687 6.825621  0.000000
444 1 444  1.605151 4.956609 15.534813  0.000000
445 1 445  14.275289 16.029419 10.157674  0.000000
446 1 446  1.473741 9.272695 2.750314  0.000000
447 1 447  18.631344 14.873075 12.701515  0.000000
448 1 448  16.905588 11.776475 7.250527  0.000000
449 1 449  4.837721 5.289005 15.008532  0.000000
450 1 450  9.487259 8.449860 0.049687  0.000000
451 1 451  17.642694 14.856392 14.857518  0.000000
452 1 452  18.199190 0.641046 18.876114  0.000000
453 1 453  8.238755 13.984365 17.903585  0.000000
454 1 454  17.465208 19.314493 19.825354  0.000000
455 1 455  18.478754 11.337893 8.435500  0.000000
456 1 456  17.050076 16.099325 1.411824  0.000000
457 1 457  12.912695 3.436213 11.488104  0.000000
458 1 458  19.568954 18.993647 3.371363  0.000000
459 1 459  3.701978 13.770952 3.639100  0.000000
460 1 460  13.405611 9.502038 18.797306  0.000000
461 1 461  16.106129 1.988592 12.834377  0.000000
462 1 462  5.085725 3.304010 9.883438  0.000000
463 1 463  7.819672 3.214930 4.300901  0.000000
464 1 464  7.803389 8.661312 2.744483  0.000000
465 1 465  16.170113 11.655216 11.272639  0.000000
466 1 466  4.665269 12.616977 11.930598  0.000000
467 1 467  11.134835 9.741208 7.478458  0.000000
468 1 468  12.982744 13.526544 2.268839  0.000000
469 1 469  7.748971 7.384019 9.520199  0.000000
470 1 470  18.001526 17.089487 5.151774  0.000000
471 1 471  1.990685 10.448050 6.640642  0.000000
472 1 472  13.454530 16.083670 17.447344  0.000000
473 1 473  18.757002 18.079741 2.687202  0.000000
474 1 474  3.105951 15.113220 14.965688  0.000000
475 1 475  16.205233 19.763529 8.712301  0.000000
476 1 476  12.449621 16.883564 17.490431  0.000000
477 1 477  7.527390 15.533567 5.494752  0.000000
478 1 478  6.806617 8.264070 19.912550  0.000000
479 1 479  4.524247 10.321062 8.011343  0.000000
480 1 480  4.312082 12.047644 17.988739  0.000000
481 1 481  9.135471 18.676142 2.798397  0.000000
482 1 482  2.636299 16.564039 18.874516  0.000000
483 1 483  7.280407 15.973488 9.769581  0.000000
484 1 484  11.748687 13.682056 16.079592  0.000000
485 1 485  10.226649 15.572838 19.146057  0.000000
486 1 486  10.647347 17.285053 1.891810  0.000000
487 1 487  14.855433 2.308597 11.719966  0.000000
488 1 488  16.708735 12.665446 0.287515  0.000000
489 1 489  4.398469 1.444561 5.783665  0.000000
490 1 490  17.069447 19.856363 9.535495  0.000000
491 1 491  10.021324 3.305918 13.465414  0.000000
492 1 492  18.743217 7.976953 14.432812  0.000000
493 1 493  6.640141 13.177827 0.511046  0.000000
494 1 494  5.733116 9.699822 9.421482  0.000000
495 1 495  14.634606 11.058230 17.547871  0.000000
496 1 496  15.902411 14.588424 9.801033  0.000000
497 1 497  17.530155 3.641074 4.194261  0.000000
498 1 498  7.064561 14.040173 0.211122  0.000000
499 1 499  1.698282 14.114996 1.533143  0.000000
500 1 500  14.149640 9.923541 9.686992  0.000000
501 1 501  19.593657 12.189350 16.286701  0.000000
502 1 502  4.467447 16.820194 9.716455  0.000000
503 1 503  6.249522 16.204037 11.790122  0.000000
504 1 504  0.915192 4.759507 18.193434  0.000000
505 1 505  4.654132 14.078137 2.798519  0.000000
506 1 506  3.028565 13.989906 19.273552  0.000000
507 1 507  5.974373 0.218089 0.864998  0.000000
508 1 508  2.926772 4.095345 18.203115  0.000000
509 1 509  16.516342 10.961297 9.458133  0.000000
510 1 510  11.183715 11.742522 6.104048  0.000000
511 1 511  2.997504 4.622937 13.394519  0.000000
512 1 512  16.537346 12.293363 15.172339  0.000000
513 1 513  11.585875 4.628014 3.800770  0.000000
514 1 514  6.868419 15.417141 5.693820  0.000000
515 1 515  7.956036 4.293006 12.089528  0.000000
516 1 516  6.180789 11.582084 14.907937  0.000000
517 1 517  6.205564 1.523498 7.696370  0.000000
518 1 518  11.187236 6.333316 7.385145  0.000000
519 1 519  1.325415 18.319067 15.972199  0.000000
520 1 520  4.186262 8.332412 8.041817  0.000000
521 1 521  15.105525 2.275959 11.669482  0.000000
522 1 522  18.752047 3.712624 11.757678  0.000000
523 1 523  4.467224 19.666193 0.657238  0.000000
524 1 524  13.039859 0.188911 19.904778  0.000000
525 1 525  17.536806 3.141864 3.999386  0.000000
526 1 526  4.513675 12.136338 13.221951  0.000000
527 1 527  11.460039 19.348400 12.614153  0.000000
528 1 528  10.108644 8.111080 7.282841  0.000000
529 1 529  4.962549 12.288485 14.256059  0.000000
530 1 530  0.673076 8.779611 9.170052  0.000000
531 1 531  4.944757 11.219033 0.616889  0.000000
532 1 532  11.556204 3.956477 9.766409  0.000000
533 1 533  13.997506 15.893016 11.656032  0.000000
534 1 534  14.030701 4.723800 4.873429  0.000000
535 1 535  12.857060 18.927586 13.666055  0.000000
536 1 536  12.617326 9.157907 2.905087  0.000000
537 1 537  15.928204 12.150064 8.623820  0.000000
538 1 538  4.882415 19.113285 9.435936  0.000000
539 1 539  5.288217 6.450389 18.277266  0.000000
540 1 540  14.556962 5.047731 7.720406  0.000000
541 1 541  5.359176 15.783940 19.959076  0.000000
542 1 542  19.052248 6.045473 15.183378  0.000000
543 1 543  8.342994 8.327881 7.329496  0.000000
544 1 544  18.038317 15.670076 18.448338  0.000000
545 1 545  3.938202 13.057448 2.663782  0.000000
546 1 546  2.498016 16.464043 11.800097  0.000000
547 1 547  2.225649 0.908207 1.721285  0.000000
548 1 548  15.482842 4.286311 7.789429  0.000000
549 1 549  6.269731 6.798761 7.031681  0.000000
550 1 550  10.007688 2.243902 1.693837  0.000000
551 1 551  16.927521 13.536121 16.733522  0.000000
552 1 552  1.997649 10.705956 13.281018  0.000000
553 1 553  4.268077 17.267651 2.155708  0.000000
554 1 554  19.988564 19.243896 12.361651  0.000000
555 1 555  3.623381 3.579826 4.300728  0.000000
556 1 556  13.086241 8.036854 6.019920  0.000000
557 1 557  1.480124 2.901611 1.919830  0.000000
558 1 558  16.586632 9.867671 18.114866  0.000000
559 1 559  13.650138 3.962234 10.787666  0.000000
560 1 560  13.745042 4.994930 3.695897  0.000000
561 1 561  18.232834 11.733528 2.555950  0.000000
562 1 562  14.642139 7.347949 8.651023  0.000000
563 1 563  6.974144 15.704476 19.479691  0.000000
564 1 564  5.896780 10.335659 10.493379  0.000000
565 1 565  8.247440 12.482270 7.284832  0.000000
566 1 566  15.048550 6.309843 17.231644  0.000000
567 1 567  11.474515 14.823043 16.259878  0.000000
568 1 568  11.199838 14.036405 17.286695  0.000000
569 1 569  4.054291 15.972034 19.013952  0.000000
570 1 570  8.286590 12.637885 16.410255  0.000000
571 1 571  19.758221 10.691643 1.371802  0.000000
572 1 572  11.334729 5.587854 6.223952  0.000000
573 1 573  9.233793 19.704504 1.177716  0.000000
574 1 574  18.607141 11.953261 14.327582  0.000000
575 1 575  6.855074 0.905107 8.900941  0.000000
576 1 576  7.135306 11.004537 15.554165  0.000000
577 1 577  6.481685 8.785913 3.802216  0.000000
578 1 578  8.417349 10.917859 4.003379  0.000000
579 1 579  3.300487 6.272533 5.285559  0.000000
580 1 580  1.349286 1.683030 2.539067  0.000000
581 1 581  18.992693 10.999792 14.932113  0.000000
582 1 582  0.658047 2.242973 8.641442  0.000000
583 1 583  3.245367 15.789915 8.012056  0.000000
584 1 584  16.417652 8.674996 7.610670  0.000000
585 1 585  15.296508 12.559319 14.237535  0.000000
586 1 586  4.047063 9.280232 15.449276  0.000000
587 1 587  1.740948 6.688402 15.114207  0.000000
588 1 588  6.922124 7.030772 9.169105  0.000000
589 1 589  19.829481 5.101021 7.102865  0.000000
590 1 590  6.624946 5.516272 15.771217  0.000000
591 1 591  18.512297 12.151364 15.363014  0.000000
592 1 592  13.965825 17.284439 18.947618  0.000000
593 1 593  4.793657 8.786588 13.337403  0.000000
594 1 594  14.506086 2.129053 19.115604  0.000000
595 1 595  5.490105 1.240232 3.568770  0.000000
596 1 596  15.733396 17.579573 9.466357  0.000000
597 1 597  12.535783 18.472261 10.216399  0.000000
598 1 598  5.307492 2.357188 14.753972  0.000000
599 1 599  17.339350 10.741661 11.099575  0.000000
600 1 600  9.542941 1.400068 10.716105  0.000000
601 1 601  7.744998 17.904436 1.025702  0.000000
602 1 602  18.927610 8.231313 11.734900  0.000000
603 1 603  18.849836 7.275944 0.068166  0.000000
604 1 604  12.507640 14.490673 1.403706  0.000000
605 1 605  10.603485 14.554928 15.804933  0.000000
606 1 606  5.991487 9.587884 12.650341  0.000000