ITEM: TIMESTEP
260000
ITEM: NUMBER OF ATOMS
1000
ITEM: BOX BOUNDS pp pp pp
0.000000 20.000000
0.000000 20.000000
0.000000 20.000000
ITEM: ATOMS id type mol x y z q
1 1 1  9.564475 6.287028 19.585327  0.000000
2 1 2  9.844086 1.437126 19.695135  1.000000
3 1 3  3.086697 7.728141 10.337688  1.000000
4 1 4  11.979470 19.428528 11.600653  1.000000
5 1 5  17.456055 14.213049 7.208460  1.000000
6 1 6  0.617240 1.383256 19.951452  1.000000
7 1 7  18.503994 16.896021 5.220039  1.000000
8 1 8  3.517685 11.643871 2.082586  1.000000
9 1 9  15.913993 18.776119 4.900147  1.000000
10 1 10  10.936847 13.389493 3.126544  1.000000
11 1 11  3.242019 16.811867 15.958389  1.000000
12 1 12  8.219919 3.873285 15.504143  1.000000
13 1 13  1.845008 14.254871 10.496403  1.000000
14 1 14  5.669312 6.491559 18.507448  1.000000
15 1 15  17.856529 5.115583 6.420236  0.000000
16 1 16  13.887649 15.565329 9.308622  1.000000
17 1 17  8.136603 3.879848 16.116238  1.000000
18 1 18  18.805079 1.360017 5.345735  1.000000
19 1 19  4.129977 16.361450 1.795904  1.000000
20 1 20  14.009170 4.197566 17.927988  1.000000
21 1 21  12.520258 4.671049 17.223074  1.000000
22 1 22  7.254791 11.360344 14.813721  1.000000
23 1 23  16.962399 4.036028 0.423036  1.000000
24 1 24  16.536438 13.039917 4.498673  0.000000
25 1 25  7.419607 3.211642 6.182012  1.000000
26 1 26  3.998109 6.890461 7.785550  1.000000
27 1 27  4.831038 1.790174 19.766954  1.000000
28 1 28  14.801933 7.544923 16.961002  1.000000
29 1 29  6.241180 16.796005 9.274235  1.000000
30 1 30  7.067845 12.721492 17.525078  1.000000
31 1 31  1.164838 2.413968 10.080006  1.000000
32 1 32  12.854063 9.663617 16.897039  1.000000
33 1 33  19.109377 2.088334 18.516491  1.000000
34 1 34  3.400758 3.516489 19.009478  1.000000
35 1 35  15.900907 19.639143 12.774732  1.000000
36 1 36  9.385726 5.256087 12.167570  1.000000
37 1 37  10.010987 1.957296 18.311018  1.000000
38 1 38  2.944733 6.549763 2.890599  1.000000
39 1 39  17.043257 13.191669 16.019407  1.000000
40 1 40  14.059904 5.588033 10.129625  1.000000
41 1 41  1.477761 19.062887 0.721293  1.000000
42 1 42  12.994468 18.962471 12.902074  0.000000
43 1 43  7.759744 13.562940 16.433460  1.000000
44 1 44  19.626526 0.602735 16.093760  1.000000
45 1 45  13.594329 4.535972 19.387232  1.000000
46 1 46  19.496958 16.487284 6.278708  1.000000
47 1 47  3.198700 4.314893 13.146235  1.000000
48 1 48  6.513542 12.290283 3.312162  1.000000
49 1 49  1.656479 5.257862 9.982150  1.000000
50 1 50  15.393197 15.097215 7.792737  1.000000
51 1 51  19.989511 2.164021 17.933620  1.000000
52 1 52  7.839055 17.900976 19.914289  1.000000
53 1 53  18.673685 15.886570 6.916388  0.000000
54 1 54  13.852868 0.524042 6.243348  1.000000
55 1 55  0.582718 17.039848 0.252205  1.000000
56 1 56  1.462630 0.376404 1.898305  1.000000
57 1 57  17.774748 19.828941 9.376761  1.000000
58 1 58  16.380011 8.525355 18.608362  1.000000
59 1 59  18.083494 16.446714 14.272908  1.000000
60 1 60  19.210321 7.424790 3.102015  1.000000
61 1 61  10.841972 12.418180 4.955171  0.000000
62 1 62  14.231305 11.529397 14.559490  0.000000
63 1 63  14.401531 19.434969 10.276190  1.000000
64 1 64  0.891086 11.145132 9.829342  1.000000
65 1 65  8.368586 6.844180 6.782817  1.000000
66 1 66  17.495773 2.621879 17.638824  0.000000
67 1 67  11.978164 17.205235 14.504716  1.000000
68 1 68  3.292805 13.340754 6.491978  1.000000
69 1 69  15.342874 1.896803 1.006019  1.000000
70 1 70  12.101681 4.924099 7.192940  1.000000
71 1 71  0.655447 6.937157 1.512050  1.000000
72 1 72  12.229826 11.832667 19.245934  1.000000
73 1 73  19.547014 1.149599 16.354338  1.000000
74 1 74  7.220794 9.227230 13.132419  1.000000
75 1 75  18.399471 3.388091 6.896642  1.000000
76 1 76  2.727870 1.332874 2.665689  1.000000
77 1 77  3.749393 10.500010 15.297337  1.000000
78 1 78  9.337549 18.166552 10.205860  1.000000
79 1 79  5.438081 8.376604 2.292752  1.000000
80 1 80  13.368347 11.650527 12.016685  1.000000
81 1 81  11.015105 16.944231 15.599246  1.000000
82 1 82  6.632958 10.961527 1.626883  1.000000
83 1 83  1.711729 10.118987 4.497447  1.000000
84 1 84  0.409599 11.963001 3.871163  1.000000
85 1 85  0.342285 13.077864 8.882377  1.000000
86 1 86  16.710335 19.550766 16.386829  1.000000
87 1 87  5.884493 0.053000 6.409784  1.000000
88 1 88  7.702979 11.368581 17.301807  1.000000
89 1 89  1.613328 14.388669 17.079157  1.000000
90 1 90  13.451464 7.803685 4.087457  0.000000
91 1 91  19.803961 19.929447 8.563558  1.000000
92 1 92  5.602663 17.749233 11.552943  0.000000
93 1 93  13.105307 10.591113 6.239779  1.000000
94 1 94  15.740403 2.350044 5.459036  1.000000
95 1 95  11.377976 14.989108 0.348107  1.000000
96 1 96  16.178495 9.331419 16.429453  1.000000
97 1 97  15.101009 5.584725 1.306162  1.000000
98 1 98  3.758205 17.540119 1.693671  1.000000
99 1 99  14.671597 2.549069 8.953449  1.000000
100 1 100  19.752031 14.991401 15.952336  1.000000
101 1 101  12.689246 4.898453 12.576063  1.000000
102 1 102  3.759078 7.270431 2.005467  1.000000
103 1 103  3.097773 2.472055 11.330056  1.000000
104 1 104  10.365242 15.120933 17.528542  1.000000
105 1 105  18.625141 4.960992 4.878122  1.000000
106 1 106  6.073903 2.492539 5.456604  1.000000
107 1 107  15.466045 12.346439 0.285615  0.000000
108 1 108  7.837481 5.434870 10.500112  1.000000
109 1 109  10.106546 9.749161 3.054496  1.000000
110 1 110  19.791138 11.630305 4.261684  1.000000
111 1 111  12.703860 12.252978 13.512106  1.000000
112 1 112  9.024371 18.242216 10.150044  1.000000
113 1 113  4.674726 6.851579 17.234774  1.000000
114 1 114  4.003908 5.972672 14.920797  1.000000
115 1 115  3.796621 7.681131 18.347713  1.000000
116 1 116  19.521955 2.598577 11.237622  1.000000
117 1 117  1.079084 5.304302 10.783756  1.000000
118 1 118  13.344307 6.081458 18.548788  1.000000
119 1 119  11.217861 2.447947 8.391021  1.000000
120 1 120  5.528212 3.134568 1.952641  1.000000
121 1 121  5.769037 12.180527 2.052506  1.000000
122 1 122  16.214397 19.064495 5.183554  1.000000
123 1 123  7.802878 16.551289 3.505110  1.000000
124 1 124  8.736907 17.842615 15.881716  1.000000
125 1 125  19.858791 4.640231 10.399150  0.000000
126 1 126  13.904529 16.483057 18.826427  1.000000
127 1 127  4.419724 14.472009 4.576580  1.000000
128 1 128  8.213870 7.210536 9.704929  0.000000
129 1 129  14.677625 2.135523 8.564778  1.000000
130 1 130  10.412188 15.983340 2.813118  1.000000
131 1 131  19.072741 18.762966 13.318332  1.000000
132 1 132  12.967196 9.451577 1.945011  0.000000
133 1 133  7.548009 2.418028 1.543095  1.000000
134 1 134  14.962259 7.336000 7.809512  1.000000
135 1 135  17.368214 19.530949 10.302073  1.000000
136 1 136  1.609762 1.952674 3.465955  1.000000
137 1 137  18.178963 14.902541 1.493780  1.000000
138 1 138  14.154331 9.754235 16.996820  1.000000
139 1 139  7.100949 1.151892 8.626419  1.000000
140 1 140  14.717074 11.494829 10.675982  1.000000
141 1 141  12.055587 11.244462 18.643803  1.000000
142 1 142  5.727264 10.740675 16.249897  1.000000
143 1 143  10.998093 14.793130 4.555334  1.000000
144 1 144  8.836425 1.359544 19.239408  1.000000
145 1 145  9.972307 12.905516 13.414527  1.000000
146 1 146  8.255045 1.209048 2.508533  1.000000
147 1 147  18.497162 16.548834 0.846136  1.000000
148 1 148  18.792057 17.097212 16.437033  1.000000
149 1 149  3.671355 3.234922 3.041875  1.000000
150 1 150  18.043922 2.527903 1.017501  1.000000
151 1 151  19.462751 11.906563 18.933710  1.000000
152 1 152  5.954522 19.533358 13.975857  0.000000
153 1 153  11.729909 12.318352 1.540409  1.000000
154 1 154  19.791681 17.743336 0.882279  1.000000
155 1 155  18.095911 8.577487 8.459406  1.000000
156 1 156  17.618923 3.777125 2.267578  1.000000
157 1 157  15.489133 14.526195 10.995580  0.000000
158 1 158  5.187326 13.169354 19.576912  0.000000
159 1 159  16.153315 0.572240 6.459035  1.000000
160 1 160  0.967532 11.378268 3.472943  1.000000
161 1 161  8.095074 5.136281 10.970053  1.000000
162 1 162  1.956610 9.301582 4.155795  1.000000
163 1 163  9.697129 3.321654 15.221666  1.000000
164 1 164  13.228795 13.022701 15.762766  1.000000
165 1 165  12.594147 6.826857 14.889352  0.000000
166 1 166  18.441294 9.954366 18.650764  1.000000
167 1 167  9.046948 18.012808 7.583422  0.000000
168 1 168  1.755725 11.113969 1.967623  1.000000
169 1 169  15.833040 4.973881 17.840002  1.000000
170 1 170  6.858799 18.412596 0.983746  1.000000
171 1 171  3.924735 17.383657 14.193901  1.000000
172 1 172  10.998487 16.211666 1.565442  1.000000
173 1 173  3.044968 10.039159 1.757632  1.000000
174 1 174  10.218066 14.213614 6.724893  1.000000
175 1 175  13.071601 4.766246 18.597532  1.000000
176 1 176  4.418588 19.146790 4.659878  1.000000
177 1 177  18.173059 17.025970 8.422273  1.000000
178 1 178  4.727466 4.594341 6.697154  1.000000
179 1 179  11.488968 13.260860 9.418552  1.000000
180 1 180  19.116335 12.290227 12.328247  0.000000
181 1 181  13.364636 6.930383 19.890495  1.000000
182 1 182  2.060618 5.217168 18.072102  0.000000
183 1 183  12.759174 17.554434 18.294107  1.000000
184 1 184  9.751902 19.320583 17.849600  1.000000
185 1 185  11.765917 6.956793 1.815220  1.000000
186 1 186  14.209519 17.479671 10.475524  1.000000
187 1 187  19.882532 12.605246 7.866146  1.000000
188 1 188  9.226564 0.687481 15.848205  0.000000
189 1 189  15.789229 5.088568 12.150408  0.000000
190 1 190  6.619795 7.888051 17.963385  1.000000
191 1 191  0.622431 14.332673 5.499063  1.000000
192 1 192  5.511746 7.382838 10.694630  1.000000
193 1 193  9.760434 5.601063 4.413878  1.000000
194 1 194  8.223282 13.673766 16.658314  1.000000
195 1 195  4.331448 13.941169 17.521275  1.000000
196 1 196  8.999629 11.041102 7.165115  1.000000
197 1 197  1.060037 12.189721 4.226124  1.000000
198 1 198  9.405939 1.206562 18.500010  1.000000
199 1 199  5.227236 14.778100 10.693408  1.000000
200 1 200  13.002018 7.393074 3.131544  1.000000
201 1 201  4.679595 9.960574 13.145700  1.000000
202 1 202  14.818760 13.903788 19.042679  1.000000
203 1 203  7.102911 0.095886 16.590179  1.000000
204 1 204  6.449334 4.242540 10.641551  1.000000
205 1 205  7.617538 14.827253 14.035891  1.000000
206 1 206  0.594037 19.388939 19.437489  1.000000
207 1 207  16.213667 14.223618 2.985755  1.000000
208 1 208  3.001498 15.852139 10.149577  1.000000
209 1 209  18.371382 14.907432 10.179976  1.000000
210 1 210  14.262710 7.248949 8.904693  1.000000
211 1 211  19.408165 15.451834 2.242105  1.000000
212 1 212  5.516274 7.848461 10.601066  1.000000
213 1 213  4.756771 0.316136 4.790184  1.000000
214 1 214  3.703845 0.376313 10.788641  1.000000
215 1 215  4.926223 16.123327 7.374988  0.000000
216 1 216  13.154484 0.895958 15.336325  1.000000
217 1 217  16.015289 18.865070 13.405330  1.000000
218 1 218  5.599524 1.496313 12.729959  1.000000
219 1 219  11.371897 8.695760 19.148598  1.000000
220 1 220  9.414821 18.667164 6.732065  1.000000
221 1 221  4.270518 3.378225 16.414183  1.000000
222 1 222  19.578268 12.120872 12.517264  1.000000
223 1 223  1.334037 7.426942 12.098093  1.000000
224 1 224  12.166857 15.793378 16.473162  1.000000
225 1 225  6.847880 19.016678 13.502460  1.000000
226 1 226  16.163729 7.487726 2.638858  1.000000
227 1 227  13.378959 11.901814 0.614093  1.000000
228 1 228  13.090369 4.947620 11.364370  1.000000
229 1 229  8.356688 4.444736 5.862879  1.000000
230 1 230  9.298234 8.022526 12.616583  1.000000
231 1 231  14.020555 19.977140 1.845012  1.000000
232 1 232  9.916751 16.308849 4.166776  1.000000
233 1 233  13.523274 17.723284 11.392527  1.000000
234 1 234  6.473995 1.175650 14.813822  1.000000
235 1 235  19.501743 1.924586 7.185262  1.000000
236 1 236  6.941845 7.173095 14.106149  1.000000
237 1 237  18.075151 9.448975 16.449972  1.000000
238 1 238  10.854255 10.964242 2.916650  1.000000
239 1 239  5.459403 1.006026 6.222012  0.000000
240 1 240  0.172265 4.599829 0.098170  1.000000
241 1 241  12.793009 9.624109 19.970417  1.000000
242 1 242  3.625940 9.083312 8.727713  1.000000
243 1 243  19.178919 13.049263 10.536435  1.000000
244 1 244  18.637472 5.681456 18.821560  1.000000
245 1 245  2.503418 1.503666 9.730612  1.000000
246 1 246  7.869207 15.842062 13.640265  1.000000
247 1 247  12.336437 5.258327 4.301055  0.000000
248 1 248  8.769218 2.873963 13.117574  1.000000
249 1 249  4.747224 9.345146 15.435271  1.000000
250 1 250  16.575787 13.703872 7.494327  1.000000
251 1 251  12.768020 18.074120 2.085887  1.000000
252 1 252  11.233888 7.185159 15.988770  1.000000
253 1 253  14.220374 9.448807 4.142508  1.000000
254 1 254  19.942131 18.220989 0.690372  1.000000
255 1 255  7.395380 5.396144 19.224112  0.000000
256 1 256  10.845480 15.254886 19.222689  1.000000
257 1 257  1.002622 19.577568 9.333174  1.000000
258 1 258  4.435382 9.040230 6.481794  1.000000
259 1 259  0.467328 7.640277 5.102391  1.000000
260 1 260  7.656284 17.856468 11.179100  1.000000
261 1 261  1.874363 2.104978 6.179628  1.000000
262 1 262  13.431765 12.930815 17.615009  1.000000
263 1 263  18.079853 6.269508 7.092281  1.000000
264 1 264  2.083950 15.291008 11.770414  1.000000
265 1 265  4.725023 12.459109 1.959632  0.000000
266 1 266  3.841712 14.864200 18.392286  1.000000
267 1 267  11.644389 3.372603 18.290712  1.000000
268 1 268  6.037860 2.843156 17.709282  1.000000
269 1 269  9.699783 14.453130 1.306285  1.000000
270 1 270  19.197756 3.430939 19.053843  1.000000
271 1 271  16.313942 17.431511 11.387616  1.000000
272 1 272  6.278623 6.803488 8.359055  1.000000
273 1 273  13.801901 13.566367 15.824998  1.000000
274 1 274  7.054199 0.104345 6.643373  1.000000
275 1 275  18.202433 5.145550 16.896233  1.000000
276 1 276  5.865343 1.466919 8.871488  0.000000
277 1 277  9.254333 7.257490 19.698580  1.000000
278 1 278  17.429424 7.480329 2.111750  0.000000
279 1 279  18.384155 0.736882 4.712729  0.000000
280 1 280  0.644443 9.715300 14.018658  1.000000
281 1 281  3.813579 12.833321 8.436976  1.000000
282 1 282  12.489330 9.208001 10.904213  1.000000
283 1 283  14.555072 3.322327 3.651867  1.000000
284 1 284  16.713646 12.499103 18.646730  0.000000
285 1 285  14.016185 9.103368 5.498778  1.000000
286 1 286  11.494805 19.745808 0.930901  1.000000
287 1 287  11.488375 12.370296 1.761085  1.000000
288 1 288  11.249685 18.669144 0.376312  1.000000
289 1 289  16.576797 16.991257 4.796021  1.000000
290 1 290  11.786517 10.221433 17.930407  1.000000
291 1 291  17.241920 1.221814 2.257480  0.000000
292 1 292  4.658606 14.625072 1.432807  1.000000
293 1 293  14.006184 6.348743 17.221079  1.000000
294 1 294  13.292265 19.218815 0.339519  1.000000
295 1 295  14.788822 13.436113 3.392835  1.000000
296 1 296  0.554203 5.634549 9.749683  1.000000
297 1 297  19.823832 2.121346 3.208574  1.000000
298 1 298  1.869285 12.193200 5.629693  0.000000
299 1 299  9.374199 18.395243 9.430283  1.000000
300 1 300  16.171209 6.620627 6.250257  1.000000
301 1 301  18.507780 12.536297 9.516531  1.000000
302 1 302  14.018155 4.958745 12.142323  1.000000
303 1 303  19.500134 16.178780 17.195932  1.000000
304 1 304  4.622270 8.555212 7.393949  1.000000
305 1 305  9.834980 12.083780 2.984730  1.000000
306 1 306  19.465485 8.862084 15.840596  0.000000
307 1 307  10.277470 7.121400 2.736607  1.000000
308 1 308  19.906532 19.664026 12.424094  0.000000
309 1 309  2.020067 17.381516 10.503881  0.000000
310 1 310  16.639956 0.533204 18.619953  1.000000
311 1 311  13.270532 1.675925 8.962339  1.000000
312 1 312  0.365774 0.159652 6.693307  1.000000
313 1 313  18.473078 16.353647 11.564626  1.000000
314 1 314  11.670672 8.023294 11.403024  1.000000
315 1 315  1.076892 15.779482 7.493415  1.000000
316 1 316  9.886822 12.998146 13.776150  1.000000
317 1 317  14.062469 6.056115 3.190135  1.000000
318 1 318  8.425088 5.708490 0.543014  1.000000
319 1 319  1.585140 7.997250 15.965775  1.000000
320 1 320  0.873930 19.797701 16.875666  1.000000
321 1 321  13.471000 0.488556 1.945102  1.000000
322 1 322  9.270776 16.532850 18.670763  1.000000
323 1 323  15.844041 19.230785 3.923706  1.000000
324 1 324  14.707473 0.812445 19.132647  1.000000
325 1 325  11.026660 18.320292 10.126688  1.000000
326 1 326  16.070400 4.303206 12.617108  1.000000
327 1 327  6.706212 15.687793 18.634172  1.000000
328 1 328  3.779001 14.056791 19.347599  1.000000
329 1 329  1.667719 5.682599 13.861551  1.000000
330 1 330  10.895821 5.020052 5.512260  1.000000
331 1 331  3.282369 16.376308 4.305229  1.000000
332 1 332  16.745197 6.565334 16.302248  0.000000
333 1 333  4.416774 3.297456 16.772818  1.000000
334 1 334  2.622581 15.546775 1.754046  0.000000
335 1 335  11.288642 12.663470 15.422116  1.000000
336 1 336  4.013401 19.042809 10.184410  1.000000
337 1 337  6.276437 1.534248 1.596336  1.000000
338 1 338  10.809541 12.879371 6.588674  1.000000
339 1 339  18.835791 16.218666 7.212324  1.000000
340 1 340  14.795112 8.482337 7.410311  1.000000
341 1 341  2.994909 11.301064 17.116476  1.000000
342 1 342  9.102791 17.746767 6.998332  1.000000
343 1 343  7.309700 15.762718 5.218320  1.000000
344 1 344  13.827791 16.958277 11.516414  0.000000
345 1 345  14.479808 19.265656 0.926942  1.000000
346 1 346  11.824518 2.605293 8.403079  1.000000
347 1 347  7.436342 15.801190 3.575308  1.000000
348 1 348  0.474649 15.578120 9.346445  0.000000
349 1 349  17.772562 16.817373 18.520090  1.000000
350 1 350  4.464917 12.554069 0.532451  1.000000
351 1 351  12.911747 7.642078 4.599720  0.000000
352 1 352  17.203135 2.549993 9.202344  1.000000
353 1 353  12.743982 16.150049 14.027178  1.000000
354 1 354  12.747407 9.645907 8.656948  1.000000
355 1 355  12.386935 3.996081 7.505259  1.000000
356 1 356  17.970104 12.913625 18.275627  1.000000
357 1 357  11.095003 12.525932 7.674366  1.000000
358 1 358  14.853733 14.782014 4.172922  1.000000
359 1 359  11.033826 17.505861 9.234924  1.000000
360 1 360  16.781082 9.491233 14.939259  1.000000
361 1 361  13.954409 2.167141 16.356953  1.000000
362 1 362  7.272751 19.096642 3.101114  0.000000
363 1 363  4.703124 2.278357 12.514542  1.000000
364 1 364  0.579985 4.781889 2.372323  1.000000
365 1 365  0.596417 3.094976 18.148689  1.000000
366 1 366  2.601816 15.603409 14.897781  1.000000
367 1 367  16.110308 11.651494 4.183334  1.000000
368 1 368  18.940346 11.174371 18.848473  1.000000
369 1 369  8.743828 14.215009 7.354747  1.000000
370 1 370  14.943039 8.931277 12.933573  1.000000
371 1 371  0.975453 9.055331 18.913782  1.000000
372 1 372  18.425926 5.321544 5.498756  1.000000
373 1 373  9.044814 11.269318 6.921747  1.000000
374 1 374  7.865279 9.388819 17.905085  0.000000
375 1 375  15.402539 7.406623 0.444913  1.000000
376 1 376  14.561115 19.851009 14.785158  1.000000
377 1 377  19.129992 10.516493 9.317657  1.000000
378 1 378  18.600101 0.857812 15.300809  1.000000
379 1 379  0.767963 4.554094 11.133392  1.000000
380 1 380  14.852503 13.551085 10.216707  1.000000
381 1 381  17.300674 11.481960 1.196757  1.000000
382 1 382  16.471357 12.607189 5.193564  1.000000
383 1 383  1.103894 7.126835 13.083306  1.000000
384 1 384  18.619375 4.324268 16.471645  1.000000
385 1 385  5.022737 13.046328 19.245445  1.000000
386 1 386  10.048471 14.138421 13.074217  1.000000
387 1 387  8.997437 9.490283 7.267362  0.000000
388 1 388  1.651197 17.940153 14.371016  1.000000
389 1 389  16.952225 5.359110 11.332867  1.000000
390 1 390  10.771266 13.587796 12.778557  1.000000
391 1 391  7.201547 11.159731 2.770520  1.000000
392 1 392  18.402714 19.122839 13.186242  0.000000
393 1 393  7.048279 17.101789 19.534683  1.000000
394 1 394  12.787833 4.752528 6.960431  1.000000
395 1 395  5.730413 10.866822 13.077622  1.000000
396 1 396  4.246323 2.438966 12.475245  1.000000
397 1 397  11.486345 13.596217 9.009114  1.000000
398 1 398  6.606574 0.298347 12.618935  1.000000
399 1 399  10.401006 0.423611 10.469380  1.000000
400 1 400  4.626171 0.662807 15.888061  1.000000
401 1 401  6.659939 2.262495 6.179434  0.000000
402 1 402  9.132701 3.435061 17.345392  1.000000
403 1 403  10.368285 17.686176 2.325711  1.000000
404 1 404  13.270477 11.398911 18.629110  1.000000
405 1 405  14.615792 5.103028 11.578401  1.000000
406 1 406  0.918270 5.839055 7.662833  1.000000
407 1 407  5.032707 8.976955 7.245088  1.000000
408 1 408  4.787481 7.886103 17.186991  1.000000
409 1 409  11.758525 9.833147 2.140724  1.000000
410 1 410  17.586723 11.893823 3.067438  1.000000
411 1 411  18.845322 12.094866 4.478712  1.000000
412 1 412  7.835603 13.584583 15.538633  1.000000
413 1 413  10.805737 8.379783 1.403564  1.000000
414 1 414  7.255735 17.564264 12.699456  1.000000
415 1 415  1.715527 9.195276 18.044159  1.000000
416 1 416  17.502462 10.327233 3.352653  1.000000
417 1 417  3.168778 3.562717 17.722317  0.000000
418 1 418  0.957241 0.316854 7.696943  1.000000
419 1 419  2.623146 13.421462 2.407400  1.000000
420 1 420  16.721241 14.487340 14.407833  1.000000
421 1 421  0.891954 5.581457 14.741950  1.000000
422 1 422  18.302876 15.714063 15.586191  1.000000
423 1 423  7.637066 8.583494 2.538133  1.000000
424 1 424  3.421429 15.313839 11.939857  1.000000
425 1 425  10.351778 5.494267 9.795963  1.000000
426 1 426  14.553703 1.828308 9.692662  1.000000
427 1 427  13.593989 13.379050 5.128335  1.000000
428 1 428  16.501350 16.728632 1.088246  1.000000
429 1 429  17.319271 11.096519 1.456753  1.000000
430 1 430  18.089508 1.505919 9.396801  1.000000
431 1 431  10.742616 8.171626 12.618903  1.000000
432 1 432  17.731119 3.419697 6.321018  0.000000
433 1 433  9.411943 13.541005 0.507496  1.000000
434 1 434  16.546457 17.457001 2.084949  1.000000
435 1 435  3.781478 11.748536 18.985832  1.000000
436 1 436  15.590763 16.056353 9.667617  1.000000
437 1 437  13.761385 7.236502 18.440540  1.000000
438 1 438  10.078321 5.197940 11.621225  1.000000
439 1 439  11.867517 4.975581 2.290035  1.000000
440 1 440  2.577732 14.394409 1.895618  1.000000
441 1 441  6.861130 1.710218 0.316319  1.000000
442 1 442  4.475526 5.600301 15.475335  1.000000
443 1 443  17.799095 11.667653 14.661287  1.000000
444 1 444  13.373499 1.911720 10.938331  0.000000
445 1 445  7.326367 13.937163 5.753495  0.000000
446 1 446  13.814911 17.655006 13.848207  1.000000
447 1 447  12.144585 1.876583 14.047349  1.000000
448 1 448  12.826762 2.954722 17.656643  1.000000
449 1 449  6.457979 9.182919 18.215818  1.000000
450 1 450  15.345031 3.769242 7.319277  1.000000
451 1 451  12.764606 13.743670 19.837223  1.000000
452 1 452  12.583724 0.352633 18.428116  1.000000
453 1 453  16.891920 5.967909 13.000220  1.000000
454 1 454  14.884857 13.793984 11.842548  1.000000
455 1 455  8.682682 8.616987 6.156781  1.000000
456 1 456  15.335357 3.948896 17.037426  1.000000
457 1 457  14.120115 3.922244 3.426541  1.000000
458 1 458  6.362833 7.595047 16.407225  1.000000
459 1 459  3.332178 10.579844 6.835268  1.000000
460 1 460  10.762048 4.171639 13.320229  1.000000
461 1 461  14.296906 14.806002 9.073972  1.000000
462 1 462  11.129117 17.778826 10.903206  1.000000
463 1 463  16.065725 9.044126 7.251661  1.000000
464 1 464  11.119080 17.331236 6.405008  1.000000
465 1 465  18.251434 11.170780 17.751806  0.000000
466 1 466  16.228264 2.284276 6.527435  1.000000
467 1 467  16.351421 4.928457 0.063162  1.000000
468 1 468  13.567677 14.636603 13.158164  1.000000
469 1 469  7.370950 6.200769 19.256294  1.000000
470 1 470  1.571180 0.741634 1.087698  1.000000
471 1 471  10.860198 7.642315 6.398591  1.000000
472 1 472  7.728680 14.845579 5.030722  1.000000
473 1 473  1.666641 10.110080 18.272299  1.000000
474 1 474  19.575863 16.913935 8.753937  1.000000
475 1 475  13.486354 1.932524 11.539515  1.000000
476 1 476  3.645581 17.763826 13.706719  1.000000
477 1 477  12.851471 6.238101 0.851110  1.000000
478 1 478  15.699143 1.757147 16.673697  1.000000
479 1 479  19.456745 9.698611 4.100834  1.000000
480 1 480  10.764290 10.650565 11.461430  1.000000
481 1 481  15.299084 2.733505 13.622812  1.000000
482 1 482  15.240840 4.399244 18.370646  1.000000
483 1 483  3.861355 17.004433 4.692204  1.000000
484 1 484  2.773587 16.837494 11.920758  1.000000
485 1 485  10.734858 2.388243 9.672265  1.000000
486 1 486  14.405303 2.423674 13.849576  0.000000
487 1 487  19.250736 8.747510 13.944634  1.000000
488 1 488  7.095604 0.080898 6.569866  1.000000
489 1 489  15.161101 13.627914 0.070192  1.000000
490 1 490  8.335505 11.374445 11.695540  1.000000
491 1 491  3.298628 2.223066 4.705698  1.000000
492 1 492  19.448477 9.437920 4.750436  0.000000
493 1 493  17.037535 12.510892 10.965693  1.000000
494 1 494  7.379854 11.385478 3.014402  1.000000
495 1 495  16.859034 3.667418 8.964296  1.000000
496 1 496  15.132061 8.638214 15.454126  1.000000
497 1 497  8.872575 6.771152 3.165312  1.000000
498 1 498  16.878468 12.853601 10.437982  1.000000
499 1 499  18.018185 6.633676 14.602194  1.000000
500 1 500  12.734461 4.220336 14.923025  1.000000
501 1 501  7.316861 3.840054 6.515999  -1.000000
502 1 502  19.132019 8.041967 0.619106  -1.000000
503 1 503  0.910604 10.348048 10.937506  -1.000000
504 1 504  9.514569 3.088995 19.758318  0.000000
505 1 505  3.544712 3.185395 5.360741  -1.000000
506 1 506  9.404214 10.450960 16.819809  -1.000000
507 1 507  7.355740 8.447373 2.189257  -1.000000
508 1 508  17.317654 18.695963 10.534609  -1.000000
509 1 509  12.080660 7.667222 14.232685  -1.000000
510 1 510  17.244312 4.164299 2.139876  0.000000
511 1 511  18.423351 12.001531 7.868762  -1.000000
512 1 512  19.105642 1.822663 16.524778  -1.000000
513 1 513  16.589836 9.736100 18.704811  -1.000000
514 1 514  10.349288 2.944582 16.721218  -1.000000
515 1 515  8.739041 12.804178 15.841253  -1.000000
516 1 516  7.240043 5.136176 1.004352  -1.000000
517 1 517  19.706564 8.298912 15.117583  -1.000000
518 1 518  15.789345 11.637856 17.816027  -1.000000
519 1 519  6.648948 2.770742 6.501170  -1.000000
520 1 520  14.052504 0.749985 19.335266  -1.000000
521 1 521  13.562565 9.809156 12.613202  -1.000000
522 1 522  2.172899 17.356859 17.056927  0.000000
523 1 523  0.101754 7.080379 17.276579  -1.000000
524 1 524  4.312066 9.767583 11.939753  -1.000000
525 1 525  9.176712 1.467610 9.117384  -1.000000
526 1 526  3.304722 4.030356 18.716246  -1.000000
527 1 527  11.321527 3.900348 8.259982  -1.000000
528 1 528  19.016565 9.603971 15.298462  -1.000000
529 1 529  19.632460 13.598875 3.140572  -1.000000
530 1 530  17.644085 1.457115 16.635141  -1.000000
531 1 531  10.143693 13.193319 3.252312  -1.000000
532 1 532  19.465353 5.727945 8.767632  0.000000
533 1 533  11.129172 6.516289 4.228528  -1.000000
534 1 534  19.974726 18.359568 4.993859  -1.000000
535 1 535  18.022997 16.488173 18.523039  0.000000
536 1 536  13.609413 13.923757 5.769207  -1.000000
537 1 537  2.055579 15.661724 17.646959  -1.000000
538 1 538  8.550164 8.905304 0.791393  -1.000000
539 1 539  1.798415 8.047159 15.742823  -1.000000
540 1 540  13.315022 8.748796 16.278404  -1.000000
541 1 541  3.544709 12.625579 6.052691  -1.000000
542 1 542  3.654214 5.139535 10.653877  0.000000
543 1 543  9.592218 10.604514 12.801930  -1.000000
544 1 544  0.220148 3.799689 7.282415  -1.000000
545 1 545  10.250132 14.185236 0.377667  0.000000
546 1 546  12.445805 18.091637 15.218218  -1.000000
547 1 547  15.843619 2.082282 18.043415  -1.000000
548 1 548  9.624168 3.988222 12.716801  -1.000000
549 1 549  15.181669 10.429520 18.678545  -1.000000
550 1 550  12.198437 7.730453 2.474688  -1.000000
551 1 551  8.802258 5.138203 19.051798  0.000000
552 1 552  10.656035 0.076304 11.166632  -1.000000
553 1 553  2.056829 18.775604 13.346146  -1.000000
554 1 554  9.608018 9.437339 3.892308  -1.000000
555 1 555  8.010244 14.519736 6.222755  -1.000000
556 1 556  8.988370 17.313999 14.274320  -1.000000
557 1 557  3.079191 8.291722 19.092129  -1.000000
558 1 558  9.508976 14.022781 16.074587  -1.000000
559 1 559  19.619665 17.547829 8.416208  -1.000000
560 1 560  3.661851 18.064472 1.417374  -1.000000
561 1 561  3.442141 9.977389 17.716627  -1.000000
562 1 562  16.146511 4.079460 4.769096  -1.000000
563 1 563  2.500904 0.169152 9.978633  -1.000000
564 1 564  0.792649 9.529977 5.575807  -1.000000
565 1 565  9.362171 3.692077 12.586220  -1.000000
566 1 566  12.001964 9.179470 7.920913  0.000000
567 1 567  16.381271 9.229731 8.795167  -1.000000
568 1 568  17.402651 4.878067 16.469570  -1.000000
569 1 569  11.186536 18.174801 17.834774  0.000000
570 1 570  8.002978 18.595718 8.534981  -1.000000
571 1 571  11.240461 15.897637 16.195724  -1.000000
572 1 572  17.329544 17.525009 0.396705  0.000000
573 1 573  16.635029 19.427607 19.386553  -1.000000
574 1 574  0.106483 3.835781 2.005127  -1.000000
575 1 575  15.017519 1.632979 16.606699  -1.000000
576 1 576  16.572685 3.005445 13.581578  -1.000000
577 1 577  8.209008 2.525860 6.288557  0.000000
578 1 578  3.894975 3.392875 2.285961  -1.000000
579 1 579  2.896534 8.655383 6.535230  -1.000000
580 1 580  10.845328 5.276824 0.197478  -1.000000
581 1 581  1.714978 5.788183 4.517774  -1.000000
582 1 582  15.696291 0.882172 19.771427  -1.000000
583 1 583  8.750974 16.923519 9.117431  -1.000000
584 1 584  13.598662 19.563974 8.537989  -1.000000
585 1 585  3.976620 10.061798 11.275599  -1.000000
586 1 586  8.940718 5.084707 8.079491  -1.000000
587 1 587  2.198925 7.296353 9.244789  -1.000000
588 1 588  4.920329 13.763773 7.833541  -1.000000
589 1 589  14.158689 14.280609 10.012350  -1.000000
590 1 590  14.668149 19.736433 19.108198  -1.000000
591 1 591  16.153973 7.602011 11.105163  -1.000000
592 1 592  6.111931 11.822154 7.893046  -1.000000
593 1 593  4.193667 15.556898 11.510895  -1.000000
594 1 594  6.490802 0.815052 9.063534  -1.000000
595 1 595  0.625820 12.620707 1.616629  -1.000000
596 1 596  6.321962 10.328649 16.562683  -1.000000
597 1 597  19.217911 6.657604 3.124591  -1.000000
598 1 598  19.019001 1.627819 9.391849  -1.000000
599 1 599  19.113720 17.832489 12.035980  0.000000
600 1 600  12.216246 13.444884 6.566085  -1.000000
601 1 601  5.125355 17.544210 9.624311  -1.000000
602 1 602  18.148880 19.061804 6.742325  -1.000000
603 1 603  7.793714 1.045021 1.811992  -1.000000
604 1 604  16.067066 7.531973 1.072556  -1.000000