ITEM: TIMESTEP
0
ITEM: NUMBER OF ATOMS
1000
ITEM: BOX BOUNDS pp pp pp
0.000000 20.000000
0.000000 20.000000
0.000000 20.000000
ITEM: ATOMS id type mol x y z q
1 1 1  2.204808 1.455039 16.271442  0.000000
2 1 2  13.875133 18.408001 16.691536  0.000000
3 1 3  10.571435 1.454352 1.536245  0.000000
4 1 4  4.217114 12.048516 9.012763  0.000000
5 1 5  15.626878 10.574193 12.394634  0.000000
6 1 6  7.395867 1.468159 8.109909  0.000000
7 1 7  2.396605 16.495476 19.375345  0.000000
8 1 8  7.500986 12.774450 8.646528  0.000000
9 1 9  9.582372 14.254791 8.383043  0.000000
10 1 10  2.431500 12.398268 3.390693  0.000000
11 1 11  17.744415 17.734695 14.431561  0.000000
12 1 12  15.220597 13.980495 2.399315  0.000000
13 1 13  14.230686 10.221301 10.962830  0.000000
14 1 14  13.004563 2.317235 1.830864  0.000000
15 1 15  15.309297 7.723586 18.854382  0.000000
16 1 16  18.500999 7.932912 18.080408  0.000000
17 1 17  17.196676 19.944572 3.156730  0.000000
18 1 18  13.538222 19.762951 7.356478  0.000000
19 1 19  3.345789 12.089000 16.002596  0.000000
20 1 20  15.497093 16.512814 7.716028  0.000000
21 1 21  16.486256 6.291519 15.165325  0.000000
22 1 22  7.294868 15.955696 10.008829  0.000000
23 1 23  6.252115 6.275678 16.005995  0.000000
24 1 24  7.451126 10.601422 19.816984  0.000000
25 1 25  13.197191 6.656711 15.645560  0.000000
26 1 26  15.795648 16.465841 12.515988  0.000000
27 1 27  18.221312 14.761030 12.959049  0.000000
28 1 28  2.284632 6.152931 6.799102  0.000000
29 1 29  4.251267 2.828939 7.793145  0.000000
30 1 30  18.678976 8.520154 7.346113  0.000000
31 1 31  0.555543 7.033529 12.892716  0.000000
32 1 32  0.046082 10.875405 8.262707  0.000000
33 1 33  8.805907 3.321793 11.201119  0.000000
34 1 34  0.740804 16.612488 7.026009  0.000000
35 1 35  2.122046 6.594141 3.196656  0.000000
36 1 36  8.256963 1.229897 0.183077  0.000000
37 1 37  1.008867 9.863037 19.384813  0.000000
38 1 38  8.219765 10.952760 17.477859  0.000000
39 1 39  2.526385 12.375653 19.102262  0.000000
40 1 40  0.747443 11.275959 7.786522  0.000000
41 1 41  2.442465 16.207636 1.640872  0.000000
42 1 42  13.003130 14.822484 4.038246  0.000000
43 1 43  13.703440 15.037612 17.111359  0.000000
44 1 44  7.040399 13.461579 19.279482  0.000000
45 1 45  13.720166 8.911598 4.034847  0.000000
46 1 46  19.278017 9.055208 18.961327  0.000000
47 1 47  14.163257 10.822392 10.261212  0.000000
48 1 48  17.843460 2.392142 9.986876  0.000000
49 1 49  9.938810 12.583950 14.609164  0.000000
50 1 50  7.592736 16.192930 2.204909  0.000000
51 1 51  19.386370 11.797988 5.346845  0.000000
52 1 52  4.130112 2.388590 18.781134  0.000000
53 1 53  17.089315 2.061381 14.246240  0.000000
54 1 54  14.664207 19.096598 14.030984  0.000000
55 1 55  18.838623 7.866284 16.793558  0.000000
56 1 56  7.088769 14.507668 18.584572  0.000000
57 1 57  13.357314 7.607515 1.140663  0.000000
58 1 58  6.653016 13.107693 6.606768  0.000000
59 1 59  8.636499 15.347778 12.971103  0.000000
60 1 60  3.515549 12.950394 5.134538  0.000000
61 1 61  9.157144 0.987843 18.378534  0.000000
62 1 62  3.613082 4.946565 8.689893  0.000000
63 1 63  1.516665 18.316004 14.818048  0.000000
64 1 64  8.948243 11.794622 8.540668  0.000000
65 1 65  4.369750 15.486134 19.787102  0.000000
66 1 66  16.293617 14.936249 16.414169  0.000000
67 1 67  9.009762 8.711997 1.356629  0.000000
68 1 68  12.266070 10.175064 18.127934  0.000000
69 1 69  19.362810 16.035769 19.392458  0.000000
70 1 70  12.243178 15.281016 12.328183  0.000000
71 1 71  6.766949 15.960093 12.059777  0.000000
72 1 72  1.995275 11.775646 6.557145  0.000000
73 1 73  4.721692 18.138466 6.621380  0.000000
74 1 74  1.124511 3.985843 4.721072  0.000000
75 1 75  5.757667 5.639122 1.277588  0.000000
76 1 76  2.274230 5.516510 7.884006  0.000000
77 1 77  19.125477 18.090755 1.439009  0.000000
78 1 78  15.544607 3.698860 10.381438  0.000000
79 1 79  10.410409 13.528690 15.232780  0.000000
80 1 80  9.236615 19.358032 4.108860  0.000000
81 1 81  12.655914 10.886691 14.508475  0.000000
82 1 82  8.869588 3.919845 7.184665  0.000000
83 1 83  13.561709 7.058149 7.773587  0.000000
84 1 84  2.140652 7.650240 6.945896  0.000000
85 1 85  15.447766 15.864367 15.263516  0.000000
86 1 86  13.186378 2.254724 10.588179  0.000000
87 1 87  15.902761 12.920190 17.711334  0.000000
88 1 88  5.573325 6.471332 19.996267  0.000000
89 1 89  12.270669 16.848845 4.025402  0.000000
90 1 90  11.548299 13.430304 18.986826  0.000000
91 1 91  13.522731 7.677451 18.563173  0.000000
92 1 92  5.185903 6.911001 14.357816  0.000000
93 1 93  0.428150 12.035364 14.128227  0.000000
94 1 94  11.873849 19.419455 13.159232  0.000000
95 1 95  4.540975 0.050993 17.139343  0.000000
96 1 96  17.751341 9.464654 6.130271  0.000000
97 1 97  17.415314 3.873343 12.821016  0.000000
98 1 98  6.921260 2.337252 11.336594  0.000000
99 1 99  1.064865 7.051324 6.145854  0.000000
100 1 100  19.518242 11.101027 18.139479  0.000000
101 1 101  7.616127 15.706454 8.930223  0.000000
102 1 102  11.001255 19.166658 13.343909  0.000000
103 1 103  2.229269 10.675305 13.828476  0.000000
104 1 104  18.258957 0.266973 19.925833  0.000000
105 1 105  11.994902 7.152839 15.260264  0.000000
106 1 106  16.012220 9.376549 10.173743  0.000000
107 1 107  8.424956 5.064363 13.591686  0.000000
108 1 108  7.121142 10.802465 13.859073  0.000000
109 1 109  7.487611 13.411816 6.221167  0.000000
110 1 110  13.954277 9.008626 2.781523  0.000000
111 1 111  10.267118 16.047634 14.736311  0.000000
112 1 112  7.411873 11.242724 13.222937  0.000000
113 1 113  10.873954 17.308599 15.649605  0.000000
114 1 114  16.255335 2.315077 7.694955  0.000000
115 1 115  18.948784 16.651840 4.910426  0.000000
116 1 116  19.002378 11.684756 6.784187  0.000000
117 1 117  10.359368 15.775111 1.092149  0.000000
118 1 118  11.696394 11.291492 3.975695  0.000000
119 1 119  4.072317 14.085650 2.742339  0.000000
120 1 120  13.450363 10.998756 7.863229  0.000000
121 1 121  10.768126 8.069509 14.727810  0.000000
122 1 122  4.259604 8.034579 14.528816  0.000000
123 1 123  1.565895 3.827288 4.467286  0.000000
124 1 124  14.054891 2.861944 0.762964  0.000000
125 1 125  8.143999 4.909380 9.790163  0.000000
126 1 126  0.473145 14.890265 7.626665  0.000000
127 1 127  15.252748 14.988691 18.380409  0.000000
128 1 128  19.686344 19.081192 0.910107  0.000000
129 1 129  9.324094 10.818848 5.445906  0.000000
130 1 130  2.415127 11.937220 2.083856  0.000000
131 1 131  12.338826 15.661009 11.008890  0.000000
132 1 132  0.732105 18.539219 2.578814  0.000000
133 1 133  0.462319 9.729513 11.651547  0.000000
134 1 134  13.211267 7.950962 5.142658  0.000000
135 1 135  6.241676 18.535490 3.293325  0.000000
136 1 136  4.835727 13.010582 4.459100  0.000000
137 1 137  16.877642 7.651458 15.648046  0.000000
138 1 138  3.014546 15.940745 14.338280  0.000000
139 1 139  17.208632 7.154718 2.484722  0.000000
140 1 140  8.346212 3.525617 0.714825  0.000000
141 1 141  14.085779 1.757586 18.435965  0.000000
142 1 142  2.091098 5.035570 8.059062  0.000000
143 1 143  18.507010 10.254615 1.799676  0.000000
144 1 144  12.096684 15.941608 11.027970  0.000000
145 1 145  18.642887 10.821353 10.515898  0.000000
146 1 146  13.346773 10.719116 0.258428  0.000000
147 1 147  14.013249 0.546802 5.797404  0.000000
148 1 148  11.865376 3.462701 0.907446  0.000000
149 1 149  7.782382 0.479999 3.943951  0.000000
150 1 150  15.061504 4.354534 11.083757  0.000000
151 1 151  17.965446 3.767917 18.832010  0.000000
152 1 152  3.723330 1.694454 14.022976  0.000000
153 1 153  4.205317 14.894391 6.681564  0.000000
154 1 154  18.414001 6.145906 6.702409  0.000000
155 1 155  6.919037 0.672915 7.265952  0.000000
156 1 156  19.611425 14.687083 2.576806  0.000000
157 1 157  5.124034 10.209846 4.198580  0.000000
158 1 158  18.952421 17.795704 6.200233  0.000000
159 1 159  18.217615 5.593693 19.250652  0.000000
160 1 160  13.537180 14.513826 9.618711  0.000000
161 1 161  3.853875 19.183481 3.163896  0.000000
162 1 162  12.199857 19.436953 15.665554  0.000000
163 1 163  3.220084 2.372062 11.597829  0.000000
164 1 164  2.085463 13.707689 6.887396  0.000000
165 1 165  4.923172 12.912530 17.810757  0.000000
166 1 166  8.042939 16.997047 9.709113  0.000000
167 1 167  16.411215 9.055764 10.514050  0.000000
168 1 168  13.666040 10.137255 7.969314  0.000000
169 1 169  9.923750 15.410328 3.475913  0.000000
170 1 170  6.163435 13.652536 12.592480  0.000000
171 1 171  1.947174 19.895443 8.753401  0.000000
172 1 172  13.978441 1.529476 16.372728  0.000000
173 1 173  1.471775 2.783054 15.918535  0.000000
174 1 174  17.286392 3.326984 15.930003  0.000000
175 1 175  17.032587 18.034462 14.551276  0.000000
176 1 176  15.372354 1.703866 14.352160  0.000000
177 1 177  2.014132 4.846923 16.101318  0.000000
178 1 178  4.800837 0.137591 9.261668  0.000000
179 1 179  5.837998 11.418910 11.340975  0.000000
180 1 180  9.177355 11.766291 8.712717  0.000000
181 1 181  3.512734 10.557275 3.182626  0.000000
182 1 182  16.722263 15.861856 18.120808  0.000000
183 1 183  19.872782 17.071424 5.959222  0.000000
184 1 184  19.097481 19.500257 9.321447  0.000000
185 1 185  2.614321 17.364965 19.982119  0.000000
186 1 186  10.000852 14.808355 13.459635  0.000000
187 1 187  6.305812 2.501168 17.155411  0.000000
188 1 188  9.632857 8.714749 18.122709  0.000000
189 1 189  15.148840 7.441971 4.021694  0.000000
190 1 190  8.002976 7.150043 7.099665  0.000000
191 1 191  9.569555 5.528872 7.694159  0.000000
192 1 192  19.650372 14.266385 17.340511  0.000000
193 1 193  15.246324 19.282686 10.702348  0.000000
194 1 194  5.480428 17.647970 15.391236  0.000000
195 1 195  5.585130 14.978220 5.092229  0.000000
196 1 196  2.678409 4.480003 19.806705  0.000000
197 1 197  7.457455 6.826548 6.760258  0.000000
198 1 198  15.220257 18.522686 11.153324  0.000000
199 1 199  1.754722 3.097897 7.759428  0.000000
200 1 200  17.821823 19.921986 16.220694  0.000000
201 1 201  12.388802 3.557590 2.182688  0.000000
202 1 202  8.250128 7.159930 14.257259  0.000000
203 1 203  0.272841 9.199391 12.400443  0.000000
204 1 204  14.041409 7.131202 7.657601  0.000000
205 1 205  3.028868 11.279740 12.951437  0.000000
206 1 206  15.217133 7.397954 10.350828  0.000000
207 1 207  1.225249 1.279056 16.558880  0.000000
208 1 208  18.332996 9.215746 18.689552  0.000000
209 1 209  2.564354 15.206084 17.161020  0.000000
210 1 210  14.855065 1.223920 7.016041  0.000000
211 1 211  18.302673 17.441582 19.242990  0.000000
212 1 212  15.010962 17.651798 17.034830  0.000000
213 1 213  7.612967 0.300844 9.689381  0.000000
214 1 214  2.199317 12.044176 16.422638  0.000000
215 1 215  2.755012 10.855183 17.743979  0.000000
216 1 216  15.078233 8.144446 15.211989  0.000000
217 1 217  0.903404 14.059077 1.057711  0.000000
218 1 218  19.283550 18.577473 7.933897  0.000000
219 1 219  7.713161 18.614674 12.372397  0.000000
220 1 220  6.938791 8.723000 8.191339  0.000000
221 1 221  11.335199 12.878467 6.133584  0.000000
222 1 222  2.489052 13.916851 11.366644  0.000000
223 1 223  8.511646 11.162195 18.332409  0.000000
224 1 224  10.978657 15.506517 10.222977  0.000000
225 1 225  6.502250 14.210153 18.198124  0.000000
226 1 226  2.513580 0.384149 3.376797  0.000000
227 1 227  5.861582 13.840006 19.973454  0.000000
228 1 228  11.938124 2.631581 0.793884  0.000000
229 1 229  19.345367 18.151291 0.432212  0.000000
230 1 230  10.390215 5.236746 14.685094  0.000000
231 1 231  9.268274 11.460705 8.252251  0.000000
232 1 232  6.225727 9.005810 8.061007  0.000000
233 1 233  16.702541 5.035392 3.645849  0.000000
234 1 234  10.975385 5.058411 18.040014  0.000000
235 1 235  0.886106 8.441590 16.137436  0.000000
236 1 236  11.860513 8.501072 0.671022  0.000000
237 1 237  17.938702 18.235443 19.082455  0.000000
238 1 238  13.445034 2.465206 2.216580  0.000000
239 1 239  4.203441 19.409323 9.046308  0.000000
240 1 240  0.208134 3.652137 5.876737  0.000000
241 1 241  0.467556 5.445197 13.233074  0.000000
242 1 242  8.741123 4.023184 4.511829  0.000000
243 1 243  3.326736 16.409256 11.621980  0.000000
244 1 244  13.495973 1.279371 8.682204  0.000000
245 1 245  16.382526 12.645329 6.941062  0.000000
246 1 246  15.132035 11.369884 8.850686  0.000000
247 1 247  0.536919 19.866653 16.238714  0.000000
248 1 248  10.290667 19.288492 2.517011  0.000000
249 1 249  14.236184 1.862293 11.400132  0.000000
250 1 250  3.529005 3.958660 15.402507  0.000000
251 1 251  2.384714 14.398295 1.466640  0.000000
252 1 252  12.700697 4.849648 12.048981  0.000000
253 1 253  16.991188 13.776633 0.805048  0.000000
254 1 254  17.752132 2.133711 5.821888  0.000000
255 1 255  18.300726 10.558685 3.201607  0.000000
256 1 256  1.334943 18.209995 4.313140  0.000000
257 1 257  11.473553 19.893938 10.465849  0.000000
258 1 258  18.341856 16.974747 19.167250  0.000000
259 1 259  8.692609 11.431931 14.359293  0.000000
260 1 260  19.329004 13.346556 19.650160  0.000000
261 1 261  6.264964 12.932021 10.175779  0.000000
262 1 262  10.749333 5.818208 7.079386  0.000000
263 1 263  3.826535 10.286872 15.037557  0.000000
264 1 264  19.490938 13.955330 9.353204  0.000000
265 1 265  5.731057 17.819250 4.149662  0.000000
266 1 266  13.716932 10.407266 0.239501  0.000000
267 1 267  12.046824 9.685136 19.096436  0.000000
268 1 268  3.446992 10.492483 15.105413  0.000000
269 1 269  9.068306 2.387049 7.987750  0.000000
270 1 270  18.295044 12.898521 14.847209  0.000000
271 1 271  12.900168 17.276379 18.439821  0.000000
272 1 272  18.880922 4.340511 10.980616  0.000000
273 1 273  1.517588 15.919416 1.934557  0.000000
274 1 274  9.797245 13.785192 0.923419  0.000000
275 1 275  9.720812 0.320819 18.605452  0.000000
276 1 276  17.564051 2.424438 15.593555  0.000000
277 1 277  8.110817 1.244323 14.664892  0.000000
278 1 278  5.505753 5.850574 3.526272  0.000000
279 1 279  14.200888 2.962325 6.895911  0.000000
280 1 280  11.364356 9.448823 16.532091  0.000000
281 1 281  16.242111 13.220489 14.382762  0.000000
282 1 282  6.804254 16.743090 10.765145  0.000000
283 1 283  4.447600 13.845180 14.622519  0.000000
284 1 284  13.255317 12.002081 11.692261  0.000000
285 1 285  0.301210 7.353620 12.110252  0.000000
286 1 286  10.098312 8.683810 2.492040  0.000000
287 1 287  0.855881 2.302381 1.450797  0.000000
288 1 288  2.125491 7.657616 16.890480  0.000000
289 1 289  9.542153 18.618732 8.751626  0.000000
290 1 290  5.670731 7.103491 15.785511  0.000000
291 1 291  14.014895 12.469389 16.310604  0.000000
292 1 292  19.962730 1.717306 5.013675  0.000000
293 1 293  9.534266 3.007100 16.577093  0.000000
294 1 294  16.174620 14.171440 14.621052  0.000000
295 1 295  9.528977 12.558013 1.120576  0.000000
296 1 296  0.683919 2.093902 19.465292  0.000000
297 1 297  18.361189 6.246572 2.666266  0.000000
298 1 298  2.866231 0.421087 14.701111  0.000000
299 1 299  5.634530 8.948102 18.895977  0.000000
300 1 300  19.002216 3.240585 15.505381  0.000000
301 1 301  11.642999 18.842400 3.657952  0.000000
302 1 302  7.547144 11.166608 0.198478  0.000000
303 1 303  3.029969 19.807896 15.160115  0.000000
304 1 304  0.055316 0.359352 9.425229  0.000000
305 1 305  2.314715 6.234328 16.046314  0.000000
306 1 306  18.602856 15.952573 10.778619  0.000000
307 1 307  2.424517 7.827488 19.321901  0.000000
308 1 308  4.734306 7.566384 18.982571  0.000000
309 1 309  15.832496 6.654467 13.247260  0.000000
310 1 310  16.693815 12.710836 10.167482  0.000000
311 1 311  15.125627 11.880948 4.412776  0.000000
312 1 312  8.533371 14.951652 14.040973  0.000000
313 1 313  4.604278 18.404551 8.238032  0.000000
314 1 314  16.313265 8.957382 9.147943  0.000000
315 1 315  10.956512 12.577159 2.458711  0.000000
316 1 316  13.287524 9.453637 3.271716  0.000000
317 1 317  8.771800 11.162289 19.705921  0.000000
318 1 318  19.899065 16.379297 10.826996  0.000000
319 1 319  14.380250 18.073532 10.256824  0.000000
320 1 320  11.497303 8.133290 6.795074  0.000000
321 1 321  7.909137 4.094048 14.873104  0.000000
322 1 322  9.409326 2.444005 16.159445  0.000000
323 1 323  16.046503 17.159613 16.141129  0.000000
324 1 324  2.620176 10.997778 6.907947  0.000000
325 1 325  9.612930 7.570571 7.494791  0.000000
326 1 326  13.356389 18.215796 8.335702  0.000000
327 1 327  7.420586 17.012432 1.884027  0.000000
328 1 328  7.697654 18.083437 16.660860  0.000000
329 1 329  11.112844 14.939448 4.615534  0.000000
330 1 330  14.957946 10.010686 17.030588  0.000000
331 1 331  8.478956 16.317501 2.862185  0.000000
332 1 332  14.848328 2.033106 2.144087  0.000000
333 1 333  6.041657 14.606440 16.744951  0.000000
334 1 334  12.901940 7.185603 17.023399  0.000000
335 1 335  15.747541 19.255365 15.745123  0.000000
336 1 336  10.078107 6.718399 6.021433  0.000000
337 1 337  16.586151 17.090200 19.697222  0.000000
338 1 338  6.960351 11.359344 7.857110  0.000000
339 1 339  16.103333 8.449105 12.167159  0.000000
340 1 340  12.033257 0.304419 7.676662  0.000000
341 1 341  17.098923 5.260674 0.675548  0.000000
342 1 342  10.316901 11.834790 17.560270  0.000000
343 1 343  7.463327 0.762907 11.885174  0.000000
344 1 344  4.023360 8.056929 5.506571  0.000000
345 1 345  13.297974 13.598272 5.343814  0.000000
346 1 346  3.187509 1.987774 12.555795  0.000000
347 1 347  17.472555 2.693033 8.952569  0.000000
348 1 348  14.484846 1.876567 15.379398  0.000000
349 1 349  9.543942 17.030622 14.257407  0.000000
350 1 350  4.342820 18.808382 3.916264  0.000000
351 1 351  10.366793 3.901873 7.547021  0.000000
352 1 352  11.974436 13.723964 13.259699  0.000000
353 1 353  17.278675 16.940151 13.316046  0.000000
354 1 354  6.382114 1.825042 6.861482  0.000000
355 1 355  2.590271 11.974345 13.711066  0.000000
356 1 356  5.514786 3.962660 2.038433  0.000000
357 1 357  18.227846 0.183326 16.870310  0.000000
358 1 358  5.488064 11.984859 17.184553  0.000000
359 1 359  3.131252 15.323631 18.792767  0.000000
360 1 360  8.242266 13.637593 15.363488  0.000000
361 1 361  5.643692 11.854987 2.384521  0.000000
362 1 362  6.878179 17.373766 17.359676  0.000000
363 1 363  8.445348 10.910590 14.205814  0.000000
364 1 364  14.514352 5.477513 0.658485  0.000000
365 1 365  10.788702 15.883290 19.038593  0.000000
366 1 366  5.088305 17.636595 16.684669  0.000000
367 1 367  14.742279 8.064226 4.262041  0.000000
368 1 368  3.959398 5.495445 9.490245  0.000000
369 1 369  15.661263 6.305226 2.461637  0.000000
370 1 370  3.004696 17.383644 5.388259  0.000000
371 1 371  8.072228 2.368484 16.259642  0.000000
372 1 372  0.848951 19.019239 13.503701  0.000000
373 1 373  7.415812 8.903380 14.299456  0.000000
374 1 374  18.492521 6.227282 17.379946  0.000000
375 1 375  11.824109 15.979719 13.425908  0.000000
376 1 376  16.299328 2.352861 2.633652  0.000000
377 1 377  18.658487 8.105352 3.596538  0.000000
378 1 378  14.248465 17.938070 15.139995  0.000000
379 1 379  11.690094 4.196805 1.446528  0.000000
380 1 380  12.054075 12.534918 13.530065  0.000000
381 1 381  4.627790 8.768411 18.948612  0.000000
382 1 382  19.630457 14.470118 10.623721  0.000000
383 1 383  14.231617 6.700522 4.192001  0.000000
384 1 384  18.922190 4.282049 4.293667  0.000000
385 1 385  17.053217 12.562297 15.288499  0.000000
386 1 386  7.109466 19.186460 13.507699  0.000000
387 1 387  1.100314 5.326693 10.346863  0.000000
388 1 388  7.189420 17.221991 1.903278  0.000000
389 1 389  16.456764 17.061375 8.395340  0.000000
390 1 390  17.234539 4.507056 17.731438  0.000000
391 1 391  4.620463 13.560510 15.495526  0.000000
392 1 392  17.382231 17.846560 3.984253  0.000000
393 1 393  4.284749 13.252577 14.451447  0.000000
394 1 394  5.657988 11.175262 10.566594  0.000000
395 1 395  7.007233 6.847382 17.287346  0.000000
396 1 396  2.237082 16.850506 19.531853  0.000000
397 1 397  4.790462 6.723497 19.378160  0.000000
398 1 398  0.136670 13.455376 10.710708  0.000000
399 1 399  13.340538 11.094528 8.400910  0.000000
400 1 400  5.651690 10.782504 13.574222  0.000000
401 1 401  0.426823 12.268838 19.832348  0.000000
402 1 402  6.932767 3.058980 4.840105  0.000000
403 1 403  16.281118 6.989909 14.601487  0.000000
404 1 404  4.103836 17.801191 13.522544  0.000000
405 1 405  3.707848 0.778333 12.076139  0.000000
406 1 406  1.698837 14.667459 10.761904  0.000000
407 1 407  8.899165 10.428601 13.212339  0.000000
408 1 408  18.751198 5.482056 18.308270  0.000000
409 1 409  8.785079 12.547031 7.025506  0.000000
410 1 410  8.554433 15.129495 6.063505  0.000000
411 1 411  4.644217 16.453386 15.000113  0.000000
412 1 412  6.335204 6.454045 17.944515  0.000000
413 1 413  4.048193 8.981452 9.004400  0.000000
414 1 414  15.434542 1.435097 14.540114  0.000000
415 1 415  9.406437 11.525673 0.365534  0.000000
416 1 416  1.075223 0.193191 17.473684  0.000000
417 1 417  1.286822 13.291637 9.333428  0.000000
418 1 418  15.716033 8.172464 0.609374  0.000000
419 1 419  12.247006 16.534077 8.281331  0.000000
420 1 420  9.838862 14.836102 17.180580  0.000000
421 1 421  19.012493 10.771627 14.766715  0.000000
422 1 422  5.168869 9.426967 8.180942  0.000000
423 1 423  12.035293 10.248994 1.509643  0.000000
424 1 424  2.028667 16.668856 12.327702  0.000000
425 1 425  11.471893 9.561746 19.131897  0.000000
426 1 426  17.147945 1.947700 13.735494  0.000000
427 1 427  9.055660 6.628411 6.855076  0.000000
428 1 428  16.435579 19.651764 17.603256  0.000000
429 1 429  3.256546 16.827902 9.257330  0.000000
430 1 430  3.891284 2.692453 17.161062  0.000000
431 1 431  2.295654 3.494084 4.970756  0.000000
432 1 432  18.074575 14.430390 15.894375  0.000000
433 1 433  9.015917 9.596385 9.291841  0.000000
434 1 434  7.712021 4.313199 5.189576  0.000000
435 1 435  5.801973 17.397152 12.614826  0.000000
436 1 436  5.634707 6.748631 13.818274  0.000000
437 1 437  15.246352 1.679191 17.586641  0.000000
438 1 438  5.360599 2.818319 17.003658  0.000000
439 1 439  16.115570 18.495327 5.096088  0.000000
440 1 440  11.069797 12.884555 12.950394  0.000000
441 1 441  4.107851 15.468783 3.021716  0.000000
442 1 442  7.190375 17.774887 11.252680  0.000000
443 1 443  5.874023 2.427475 8.142885  0.000000
444 1 444  10.659970 15.177357 0.713915  0.000000
445 1 445  5.808905 16.810976 3.869552  0.000000
446 1 446  12.538026 12.334627 17.010120  0.000000
447 1 447  1.144640 2.842961 15.579146  0.000000
448 1 448  8.454976 2.963610 16.288614  0.000000
449 1 449  2.461825 12.635177 2.492393  0.000000
450 1 450  3.432326 12.354835 18.900349  0.000000
451 1 451  1.087895 9.694612 13.166069  0.000000
452 1 452  6.053713 12.274774 19.075741  0.000000
453 1 453  4.694839 1.645804 11.730879  0.000000
454 1 454  12.907969 4.698989 16.840233  0.000000
455 1 455  9.133005 14.725126 12.879114  0.000000
456 1 456  17.372082 6.721192 5.057080  0.000000
457 1 457  12.607340 19.764540 6.050660  0.000000
458 1 458  13.704398 10.883295 13.228035  0.000000
459 1 459  18.285425 4.686946 9.381145  0.000000
460 1 460  0.949827 4.786577 10.832077  0.000000
461 1 461  10.370022 7.386033 9.103653  0.000000
462 1 462  11.698326 9.620560 13.294239  0.000000
463 1 463  5.043152 16.655060 16.214256  0.000000
464 1 464  2.190251 13.903082 8.171035  0.000000
465 1 465  7.341495 5.343330 0.114194  0.000000
466 1 466  16.883446 13.133039 16.467161  0.000000
467 1 467  5.149988 2.913124 19.817966  0.000000
468 1 468  12.525528 18.828600 10.734302  0.000000
469 1 469  17.370522 19.762445 13.064241  0.000000
470 1 470  16.541229 10.878054 7.228302  0.000000
471 1 471  10.424320 14.128630 16.932570  0.000000
472 1 472  17.200344 7.885360 0.062422  0.000000
473 1 473  13.025948 19.840979 4.930713  0.000000
474 1 474  8.590200 1.838089 15.572907  0.000000
475 1 475  11.281139 17.235300 4.099184  0.000000
476 1 476  8.702625 2.054027 13.821454  0.000000
477 1 477  0.115613 14.631651 6.996116  0.000000
478 1 478  16.304993 8.557224 3.915356  0.000000
479 1 479  4.880089 13.670507 12.153120  0.000000
480 1 480  0.767407 5.653029 3.407848  0.000000
481 1 481  7.823723 14.549514 8.907480  0.000000
482 1 482  15.065243 6.570284 3.291942  0.000000
483 1 483  9.973714 4.473347 18.128683  0.000000
484 1 484  5.198238 14.054150 9.537606  0.000000
485 1 485  17.642441 8.203061 3.047169  0.000000
486 1 486  18.648703 17.178917 9.572886  0.000000
487 1 487  10.848197 9.889619 5.250792  0.000000
488 1 488  4.891855 7.413904 4.866424  0.000000
489 1 489  9.037251 10.989044 2.184911  0.000000
490 1 490  7.994047 4.635921 5.508718  0.000000
491 1 491  6.852118 6.444280 13.416796  0.000000
492 1 492  6.540485 11.345450 19.893431  0.000000
493 1 493  16.344917 6.532426 2.556671  0.000000
494 1 494  16.736576 0.510630 1.754209  0.000000
495 1 495  15.507895 0.772619 3.490256  0.000000
496 1 496  6.411092 14.433823 3.745394  0.000000
497 1 497  0.205529 2.007122 18.949696  0.000000
498 1 498  16.307228 8.753335 6.408243  0.000000
499 1 499  5.471243 15.545296 14.496870  0.000000
500 1 500  16.756079 18.438904 10.936803  0.000000
501 1 501  8.800056 8.760343 8.251189  0.000000
502 1 502  15.002557 3.024856 11.502929  0.000000
503 1 503  3.028855 9.990929 17.176384  0.000000
504 1 504  14.331869 9.213355 12.679786  0.000000
505 1 505  7.134828 19.724401 0.978976  0.000000
506 1 506  4.874887 14.229123 15.743895  0.000000
507 1 507  1.094583 3.079753 4.489279  0.000000
508 1 508  8.605523 19.124960 7.959348  0.000000
509 1 509  0.931949 17.143156 1.583598  0.000000
510 1 510  19.169514 2.777901 8.612072  0.000000
511 1 511  15.461975 17.916695 2.522831  0.000000
512 1 512  10.362672 6.988668 1.567047  0.000000
513 1 513  19.120951 7.743880 19.538355  0.000000
514 1 514  10.592920 16.366459 1.757138  0.000000
515 1 515  13.964064 15.354613 0.282434  0.000000
516 1 516  9.475360 5.812658 13.606133  0.000000
517 1 517  2.039990 5.241842 3.302582  0.000000
518 1 518  10.378725 18.955124 1.662650  0.000000
519 1 519  10.835095 9.736852 2.869465  0.000000
520 1 520  5.957534 0.244626 18.359663  0.000000
521 1 521  11.202140 10.054424 15.347554  0.000000
522 1 522  11.904065 10.823736 10.753925  0.000000
523 1 523  10.103542 9.400913 13.389678  0.000000
524 1 524  3.264554 13.279081 9.579982  0.000000
525 1 525  4.555169 1.868920 8.463689  0.000000
526 1 526  16.242413 9.190132 17.087303  0.000000
527 1 527  13.084529 3.616663 10.835933  0.000000
528 1 528  0.707868 8.621709 3.227522  0.000000
529 1 529  7.020308 11.006590 11.642029  0.000000
530 1 530  0.358845 15.489448 8.482600  0.000000
531 1 531  4.228595 5.783196 19.629570  0.000000
532 1 532  19.547068 19.040333 14.211585  0.000000
533 1 533  6.029221 19.443001 7.245788  0.000000
534 1 534  18.413956 13.692753 15.183729  0.000000
535 1 535  17.765215 18.900452 16.980255  0.000000
536 1 536  15.306852 17.916344 13.623444  0.000000
537 1 537  17.670076 11.356787 3.928728  0.000000
538 1 538  7.090269 17.636314 1.581979  0.000000
539 1 539  15.538583 7.863911 18.335321  0.000000
540 1 540  1.793729 18.011734 10.757110  0.000000
541 1 541  7.051579 17.509003 19.533689  0.000000
542 1 542  10.244184 10.362787 18.533752  0.000000
543 1 543  2.721119 13.111161 10.233081  0.000000
544 1 544  15.608113 18.271700 15.598274  0.000000
545 1 545  17.803211 5.129470 11.717196  0.000000
546 1 546  15.342926 5.333469 10.975494  0.000000
547 1 547  0.837482 13.504027 16.481285  0.000000
548 1 548  6.400234 5.398987 3.662324  0.000000
549 1 549  12.611999 17.729155 10.598898  0.000000
550 1 550  4.064867 13.010110 3.199798  0.000000
551 1 551  17.428316 16.803154 12.496194  0.000000
552 1 552  13.238213 14.135297 7.755273  0.000000
553 1 553  7.646691 12.131885 8.212810  0.000000
554 1 554  7.947359 10.071521 19.831821  0.000000
555 1 555  13.807492 10.518493 12.267805  0.000000
556 1 556  12.294364 3.002169 5.625042  0.000000
557 1 557  17.933323 2.152071 11.921141  0.000000
558 1 558  14.469129 2.931733 18.302162  0.000000
559 1 559  16.730434 7.961576 3.748293  0.000000
560 1 560  16.646988 9.350594 6.113690  0.000000
561 1 561  13.938669 16.896006 18.474785  0.000000
562 1 562  1.451442 7.197433 9.679127  0.000000
563 1 563  3.812396 12.501901 18.553209  0.000000
564 1 564  15.302884 10.723216 2.819540  0.000000
565 1 565  1.304439 17.303795 13.722788  0.000000
566 1 566  2.893320 2.311922 0.391770  0.000000
567 1 567  5.476706 13.301903 19.636589  0.000000
568 1 568  1.586554 19.168344 19.444738  0.000000
569 1 569  2.798742 1.567715 7.613481  0.000000
570 1 570  12.971380 4.740043 18.616560  0.000000
571 1 571  2.025630 16.399338 3.814085  0.000000
572 1 572  16.019249 7.591882 7.400861  0.000000
573 1 573  14.239123 2.169061 14.414698  0.000000
574 1 574  8.924645 14.203414 1.727344  0.000000
575 1 575  16.721241 3.098082 19.249062  0.000000
576 1 576  9.374509 16.656879 18.455202  0.000000
577 1 577  6.409547 3.280615 2.090375  0.000000
578 1 578  19.739864 13.724367 6.864921  0.000000
579 1 579  2.246342 15.061950 19.522478  0.000000
580 1 580  15.623702 11.905430 15.061126  0.000000
581 1 581  7.217997 8.378586 14.105979  0.000000
582 1 582  1.040765 16.037350 10.722816  0.000000
583 1 583  5.836688 17.597082 13.712619  0.000000
584 1 584  14.291719 7.082934 17.787525  0.000000
585 1 585  18.667469 13.340537 6.751424  0.000000
586 1 586  9.826350 16.830177 11.292294  0.000000
587 1 587  0.690114 3.049584 5.607584  0.000000
588 1 588  13.874292 14.895424 1.409221  0.000000
589 1 589  14.422000 13.311131 6.503919  0.000000
590 1 590  15.693199 1.382657 7.118325  0.000000
591 1 591  5.362560 6.546975 19.908409  0.000000
592 1 592  16.731062 4.222487 10.469127  0.000000
593 1 593  18.554083 15.093876 12.967245  0.000000
594 1 594  3.685034 19.905199 7.020999  0.000000
595 1 595  17.023384 4.039767 3.044711  0.000000
596 1 596  6.188215 14.765628 13.370306  0.000000
597 1 597  16.715456 4.172995 4.725747  0.000000
598 1 598  1.603756 1.506291 4.633992  0.000000
599 1 599  16.646067 0.773654 0.695277  0.000000
600 1 600  3.767217 11.166911 10.089374  0.000000
601 1 601  14.750035 12.072351 3.518633  0.000000
602 1 602  16.464958 2.797209 1.243782  0.000000
603 1 603  1.996138 13.327473 6.326236  0.000000
604 1 604  10.561071 7.892693 0.725910  0.000000
605 1 605  14.121036 12.383299 9.157708  0.000000
606 1 606  17.771214 17.312729 2.555320  0.000000