ITEM: TIMESTEP
0
ITEM: NUMBER OF ATOMS
2000
ITEM: BOX BOUNDS pp pp pp
0.000000 10.000000
0.000000 10.000000
0.000000 10.000000
ITEM: ATOMS id type mol x y z q
1 1 1  0.556836 2.104367 0.688661  0.000000
2 1 2  1.724564 6.973362 2.278365  0.000000
3 1 3  9.061068 6.182000 7.961751  0.000000
4 1 4  1.227029 8.843568 1.438550  0.000000
5 1 5  7.840438 8.621223 9.408859  0.000000
6 1 6  5.373797 6.490219 2.623945  0.000000
7 1 7  3.664062 7.653232 9.825728  0.000000
8 1 8  0.928458 5.454923 8.002861  0.000000
9 1 9  8.206496 5.823011 2.017427  0.000000
10 1 10  6.599857 2.034282 5.631338  0.000000
11 1 11  7.736745 7.860197 5.199741  0.000000
12 1 12  5.632336 0.109452 7.699540  0.000000
13 1 13  8.699986 4.645711 8.969782  0.000000
14 1 14  0.489736 2.809398 8.229093  0.000000
15 1 15  6.391770 8.988815 6.182361  0.000000
16 1 16  3.589345 1.202864 6.074544  0.000000
17 1 17  0.674246 7.307309 9.411598  0.000000
18 1 18  2.620250 7.855838 0.564928  0.000000
19 1 19  3.253802 1.719973 4.673179  0.000000
20 1 20  2.922224 0.473391 0.129619  0.000000
21 1 21  8.714972 9.872991 5.719450  0.000000
22 1 22  3.179437 7.880214 6.557704  0.000000
23 1 23  5.163449 0.393746 6.972734  0.000000
24 1 24  7.115159 6.020501 9.576595  0.000000
25 1 25  7.242061 4.314887 2.134583  0.000000
26 1 26  1.636511 2.930849 3.332461  0.000000
27 1 27  0.912549 5.348780 5.894105  0.000000
28 1 28  5.105680 9.079092 9.740255  0.000000
29 1 29  1.245053 0.333661 5.314880  0.000000
30 1 30  0.407478 0.181573 9.649243  0.000000
31 1 31  2.078796 5.760638 9.161982  0.000000
32 1 32  0.418599 8.514117 6.724287  0.000000
33 1 33  1.718409 1.762845 8.429516  0.000000
34 1 34  7.157991 1.340655 7.805287  0.000000
35 1 35  8.466205 9.007625 7.879782  0.000000
36 1 36  1.245783 9.153073 8.879835  0.000000
37 1 37  8.963666 3.143786 0.460939  0.000000
38 1 38  5.718334 0.698018 8.939344  0.000000
39 1 39  4.496279 0.749954 8.369356  0.000000
40 1 40  9.112753 9.215239 7.085271  0.000000
41 1 41  8.872985 1.944244 8.606638  0.000000
42 1 42  9.362363 3.477492 6.347223  0.000000
43 1 43  5.482861 6.715292 0.784355  0.000000
44 1 44  1.545744 7.073473 2.990485  0.000000
45 1 45  8.399798 4.778239 4.886767  0.000000
46 1 46  1.538905 1.158706 2.598015  0.000000
47 1 47  1.301218 2.073617 6.082778  0.000000
48 1 48  2.473961 3.218032 8.188231  0.000000
49 1 49  1.877614 4.271074 8.220387  0.000000
50 1 50  4.935550 1.452484 0.254193  0.000000
51 1 51  7.493639 2.071640 9.005563  0.000000
52 1 52  7.989844 7.447169 8.296908  0.000000
53 1 53  2.720027 8.086568 5.513617  0.000000
54 1 54  0.387756 0.125807 2.842191  0.000000
55 1 55  5.069166 6.823989 0.123577  0.000000
56 1 56  7.849434 9.889065 4.085854  0.000000
57 1 57  9.661503 1.689599 8.726268  0.000000
58 1 58  4.031356 7.115376 0.926079  0.000000
59 1 59  7.650773 7.333229 7.576974  0.000000
60 1 60  9.899176 5.758725 1.840329  0.000000
61 1 61  6.047049 6.831585 8.009425  0.000000
62 1 62  5.521985 5.598614 2.231337  0.000000
63 1 63  7.482674 8.234195 0.362206  0.000000
64 1 64  7.293572 7.678452 3.265392  0.000000
65 1 65  3.040857 0.678830 0.963849  0.000000
66 1 66  1.181797 2.892781 4.372926  0.000000
67 1 67  1.834492 0.060767 7.496572  0.000000
68 1 68  2.602689 6.867977 6.487713  0.000000
69 1 69  6.396667 9.206331 3.554179  0.000000
70 1 70  4.796055 9.632463 1.242055  0.000000
71 1 71  5.592824 0.686797 4.511235  0.000000
72 1 72  7.949676 3.425105 4.275293  0.000000
73 1 73  9.754161 4.731190 9.062332  0.000000
74 1 74  6.302689 5.148822 3.031806  0.000000
75 1 75  6.076300 8.216512 4.347690  0.000000
76 1 76  5.504790 2.825063 3.707997  0.000000
77 1 77  3.434926 2.725014 1.135640  0.000000
78 1 78  9.424889 2.747817 0.928174  0.000000
79 1 79  2.668674 3.283406 6.507219  0.000000
80 1 80  4.458815 7.850967 8.816251  0.000000
81 1 81  4.228454 3.446445 1.304203  0.000000
82 1 82  9.203018 1.603431 4.673201  0.000000
83 1 83  3.145871 7.560416 1.450224  0.000000
84 1 84  1.213123 4.672988 2.433849  0.000000
85 1 85  5.705667 1.409728 4.899332  0.000000
86 1 86  8.469962 2.561879 0.702858  0.000000
87 1 87  1.604750 3.937535 4.896759  0.000000
88 1 88  7.518771 6.139299 3.874557  0.000000
89 1 89  4.412857 3.242743 0.044147  0.000000
90 1 90  6.238090 9.578240 0.496046  0.000000
91 1 91  9.479483 1.074474 7.097612  0.000000
92 1 92  7.691836 9.631707 0.223996  0.000000
93 1 93  5.969450 3.796861 3.632771  0.000000
94 1 94  7.485996 3.092663 4.803968  0.000000
95 1 95  8.788891 3.543998 2.510875  0.000000
96 1 96  9.540394 2.343139 5.828531  0.000000
97 1 97  3.135077 5.921962 7.982939  0.000000
98 1 98  8.536389 5.157679 9.897285  0.000000
99 1 99  5.788816 3.702950 7.623734  0.000000
100 1 100  7.692443 8.879289 6.514373  0.000000
101 1 101  4.607843 7.644300 5.342938  0.000000
102 1 102  6.807325 3.393192 8.358661  0.000000
103 1 103  5.460357 9.870404 6.279706  0.000000
104 1 104  1.657310 0.419429 8.867921  0.000000
105 1 105  6.723238 0.789286 2.315714  0.000000
106 1 106  5.923233 0.965720 9.147091  0.000000
107 1 107  9.794851 4.776634 4.968420  0.000000
108 1 108  7.071511 5.498032 6.638554  0.000000
109 1 109  8.823941 5.671956 5.331018  0.000000
110 1 110  1.488409 5.526772 6.407586  0.000000
111 1 111  0.664427 7.565525 6.818138  0.000000
112 1 112  4.316057 4.748696 7.214805  0.000000
113 1 113  7.223399 9.726048 5.542936  0.000000
114 1 114  9.730082 8.205187 8.769240  0.000000
115 1 115  9.874820 0.945684 0.284978  0.000000
116 1 116  2.173595 6.757257 0.908430  0.000000
117 1 117  7.261119 8.609100 4.742587  0.000000
118 1 118  8.408773 7.440639 8.732558  0.000000
119 1 119  3.285063 2.312118 9.500487  0.000000
120 1 120  0.430362 8.245889 5.140344  0.000000
121 1 121  8.582518 8.681404 5.923421  0.000000
122 1 122  9.863766 6.327934 5.436792  0.000000
123 1 123  5.123767 4.279957 8.294755  0.000000
124 1 124  7.509218 8.893826 9.355924  0.000000
125 1 125  8.028106 0.558267 0.506656  0.000000
126 1 126  2.533319 0.429358 6.352045  0.000000
127 1 127  3.730670 9.014007 2.750058  0.000000
128 1 128  5.701046 6.705732 1.214607  0.000000
129 1 129  8.031349 9.792736 2.343071  0.000000
130 1 130  8.901832 7.669102 1.565154  0.000000
131 1 131  3.840233 9.156485 7.066784  0.000000
132 1 132  5.458236 7.426247 4.180809  0.000000
133 1 133  5.073696 8.507289 5.132616  0.000000
134 1 134  6.963178 5.511711 5.039603  0.000000
135 1 135  0.525454 4.811709 3.766767  0.000000
136 1 136  6.254048 6.701713 0.732859  0.000000
137 1 137  3.880653 2.907668 2.538246  0.000000
138 1 138  5.053574 1.136683 6.765110  0.000000
139 1 139  0.727478 5.409350 9.545152  0.000000
140 1 140  7.682871 5.718482 0.164797  0.000000
141 1 141  8.961884 8.574212 4.438338  0.000000
142 1 142  6.928690 1.209292 2.392632  0.000000
143 1 143  9.286077 2.919398 3.884217  0.000000
144 1 144  0.456737 5.460578 6.892421  0.000000
145 1 145  9.900611 6.673228 7.210484  0.000000
146 1 146  2.331999 4.024298 9.247842  0.000000
147 1 147  6.699782 9.401921 0.180225  0.000000
148 1 148  5.607081 6.918046 0.012932  0.000000
149 1 149  5.088758 9.311328 3.246683  0.000000
150 1 150  1.781461 6.585680 7.313948  0.000000
151 1 151  9.612477 1.131172 5.328347  0.000000
152 1 152  8.747137 6.281627 9.472479  0.000000
153 1 153  7.606390 3.244526 6.877784  0.000000
154 1 154  7.684035 8.208195 2.732877  0.000000
155 1 155  9.840235 5.173343 3.740987  0.000000
156 1 156  9.235217 2.871380 8.498705  0.000000
157 1 157  7.708455 4.532736 5.582696  0.000000
158 1 158  1.790853 9.354463 3.234393  0.000000
159 1 159  1.553977 8.453569 5.644156  0.000000
160 1 160  5.661788 5.726980 6.431786  0.000000
161 1 161  3.579587 6.312784 3.708761  0.000000
162 1 162  7.972696 6.857394 2.447600  0.000000
163 1 163  4.789092 0.930345 8.820660  0.000000
164 1 164  8.757195 9.266631 0.086735  0.000000
165 1 165  0.363724 9.320095 3.736711  0.000000
166 1 166  2.997970 9.955388 5.213234  0.000000
167 1 167  0.655230 7.250227 5.363765  0.000000
168 1 168  9.941890 4.669684 5.700921  0.000000
169 1 169  3.033667 1.165389 4.663757  0.000000
170 1 170  5.264734 7.575582 6.455383  0.000000
171 1 171  2.108228 0.166339 1.987573  0.000000
172 1 172  5.277479 2.030680 3.605914  0.000000
173 1 173  6.844738 2.995531 8.485566  0.000000
174 1 174  9.761115 7.686349 6.566636  0.000000
175 1 175  0.842137 0.362291 4.986569  0.000000
176 1 176  6.508793 9.643632 9.517031  0.000000
177 1 177  7.669587 5.675291 0.463112  0.000000
178 1 178  4.843430 1.457358 9.907465  0.000000
179 1 179  7.409580 9.975485 5.790955  0.000000
180 1 180  0.865083 2.447733 6.766464  0.000000
181 1 181  2.507668 3.080588 9.800127  0.000000
182 1 182  2.231859 3.779054 0.277689  0.000000
183 1 183  1.766169 5.534476 7.061000  0.000000
184 1 184  2.705616 6.264841 0.734469  0.000000
185 1 185  2.997875 7.292030 0.833758  0.000000
186 1 186  2.809752 5.205497 7.122907  0.000000
187 1 187  1.173539 8.986814 9.091998  0.000000
188 1 188  5.419809 3.145741 6.334264  0.000000
189 1 189  2.669108 7.533772 0.394975  0.000000
190 1 190  9.551755 4.142397 9.513995  0.000000
191 1 191  1.236640 1.485087 4.186797  0.000000
192 1 192  3.528510 5.907032 7.330574  0.000000
193 1 193  6.542227 2.561254 9.189746  0.000000
194 1 194  1.744102 8.882618 5.577863  0.000000
195 1 195  1.949549 4.770060 8.738930  0.000000
196 1 196  8.343536 4.989590 5.703016  0.000000
197 1 197  8.354664 2.323482 3.597976  0.000000
198 1 198  5.943059 3.519445 9.907542  0.000000
199 1 199  5.632265 6.947511 7.312464  0.000000
200 1 200  2.256561 6.711952 0.902166  0.000000
201 1 201  1.074558 9.949070 7.116686  0.000000
202 1 202  6.274956 3.061181 6.407991  0.000000
203 1 203  7.294510 7.107966 0.693448  0.000000
204 1 204  9.719999 4.925614 4.403599  0.000000
205 1 205  4.661992 1.385905 7.772359  0.000000
206 1 206  8.849599 8.704535 9.854286  0.000000
207 1 207  9.409285 3.749500 2.669915  0.000000
208 1 208  0.273983 4.108286 8.335602  0.000000
209 1 209  6.844035 8.883945 9.791203  0.000000
210 1 210  7.863183 8.324701 0.814933  0.000000
211 1 211  8.018601 5.201229 7.548493  0.000000
212 1 212  4.392759 9.613914 1.720911  0.000000
213 1 213  9.156426 8.730424 0.168896  0.000000
214 1 214  5.581081 0.063353 4.540164  0.000000
215 1 215  2.380499 2.860082 1.054058  0.000000
216 1 216  3.419998 2.417547 8.060699  0.000000
217 1 217  3.617082 7.163847 4.261334  0.000000
218 1 218  4.041524 8.711743 9.787714  0.000000
219 1 219  8.408792 1.422479 0.304430  0.000000
220 1 220  1.362201 8.827679 8.616246  0.000000
221 1 221  2.503592 4.091883 6.393919  0.000000
222 1 222  0.483249 6.694335 6.869644  0.000000
223 1 223  4.596335 3.510784 0.193160  0.000000
224 1 224  8.078117 1.449436 1.566810  0.000000
225 1 225  5.422130 8.815569 9.930584  0.000000
226 1 226  2.460378 3.925823 3.008913  0.000000
227 1 227  0.233907 0.245663 2.582448  0.000000
228 1 228  6.108138 1.788697 0.828755  0.000000
229 1 229  6.075457 0.256906 0.273075  0.000000
230 1 230  1.200702 9.960691 2.797243  0.000000
231 1 231  0.546903 0.822679 2.125165  0.000000
232 1 232  3.008244 4.712816 5.250629  0.000000
233 1 233  2.087884 4.596862 9.880015  0.000000
234 1 234  4.094835 0.322118 1.767293  0.000000
235 1 235  8.271441 2.951449 3.215374  0.000000
236 1 236  5.207316 1.676567 3.270843  0.000000
237 1 237  4.917335 4.179237 1.176746  0.000000
238 1 238  2.944681 2.627653 5.164654  0.000000
239 1 239  8.802884 5.770514 7.768926  0.000000
240 1 240  2.686258 0.108358 7.357551  0.000000
241 1 241  6.516545 4.260228 3.397116  0.000000
242 1 242  4.831363 2.791425 5.695256  0.000000
243 1 243  4.933457 2.612149 8.768535  0.000000
244 1 244  4.806870 5.727801 9.226237  0.000000
245 1 245  9.734965 7.511884 9.400447  0.000000
246 1 246  0.560727 3.881032 9.798985  0.000000
247 1 247  5.088481 1.557891 3.630382  0.000000
248 1 248  9.867455 2.436165 5.101368  0.000000
249 1 249  5.646098 3.093984 5.846044  0.000000
250 1 250  6.281136 4.962681 7.238878  0.000000
251 1 251  1.305288 0.682100 9.521223  0.000000
252 1 252  5.440969 0.452461 3.359215  0.000000
253 1 253  7.097993 5.957924 2.752722  0.000000
254 1 254  9.789115 7.697843 3.645803  0.000000
255 1 255  5.839347 0.878521 7.877812  0.000000
256 1 256  5.460611 6.805037 1.761417  0.000000
257 1 257  0.386320 4.155869 8.814833  0.000000
258 1 258  7.229579 5.616038 3.913736  0.000000
259 1 259  8.094304 2.422284 3.578645  0.000000
260 1 260  2.320561 4.236233 7.177954  0.000000
261 1 261  9.514936 8.993287 3.064827  0.000000
262 1 262  9.610428 1.882663 0.465993  0.000000
263 1 263  1.563282 3.156834 1.983792  0.000000
264 1 264  0.052546 3.635031 7.928703  0.000000
265 1 265  1.125960 1.150331 8.472726  0.000000
266 1 266  5.477021 3.568286 9.140635  0.000000
267 1 267  5.617191 3.201527 1.922370  0.000000
268 1 268  6.322901 1.383316 3.668090  0.000000
269 1 269  3.389434 1.792055 4.903541  0.000000
270 1 270  4.744031 6.475883 5.262707  0.000000
271 1 271  1.092930 8.645493 6.398221  0.000000
272 1 272  6.092456 5.907489 4.364777  0.000000
273 1 273  0.273789 5.005109 6.158597  0.000000
274 1 274  7.702213 5.742852 7.741759  0.000000
275 1 275  3.334429 3.058385 1.124406  0.000000
276 1 276  4.775989 4.502261 7.174466  0.000000
277 1 277  6.522953 4.710255 0.119726  0.000000
278 1 278  4.860357 7.140816 8.205009  0.000000
279 1 279  4.229982 0.328817 8.350036  0.000000
280 1 280  6.387841 4.925439 3.469950  0.000000
281 1 281  9.130725 3.114504 4.457327  0.000000
282 1 282  1.601295 2.256579 6.688463  0.000000
283 1 283  9.172840 6.249313 3.755278  0.000000
284 1 284  0.548223 2.221216 6.554302  0.000000
285 1 285  3.490237 5.844054 8.598067  0.000000
286 1 286  8.988276 0.092552 1.183438  0.000000
287 1 287  6.805624 7.687376 7.072237  0.000000
288 1 288  8.134316 8.593299 2.440011  0.000000
289 1 289  2.799592 3.820048 4.902259  0.000000
290 1 290  5.452690 6.649361 5.865252  0.000000
291 1 291  8.913472 9.707336 6.554254  0.000000
292 1 292  6.819337 7.281507 7.225150  0.000000
293 1 293  5.798586 8.106185 0.319365  0.000000
294 1 294  0.948796 9.973162 7.839083  0.000000
295 1 295  6.371828 7.383115 7.723349  0.000000
296 1 296  4.568340 2.601107 0.815816  0.000000
297 1 297  6.715333 1.325006 2.401541  0.000000
298 1 298  2.707585 2.784727 0.495138  0.000000
299 1 299  8.148324 9.532851 3.521905  0.000000
300 1 300  3.185051 3.784870 2.353749  0.000000
301 1 301  0.043732 5.080488 2.518249  0.000000
302 1 302  0.714012 0.717808 4.541667  0.000000
303 1 303  0.283295 5.256721 7.644645  0.000000
304 1 304  5.806499 2.939681 2.442804  0.000000
305 1 305  0.828923 0.248522 3.578984  0.000000
306 1 306  3.602908 0.471214 7.694957  0.000000
307 1 307  0.151854 0.990040 1.976680  0.000000
308 1 308  7.981048 1.486970 4.236646  0.000000
309 1 309  0.808081 3.205923 9.074108  0.000000
310 1 310  0.075262 4.635004 2.679023  0.000000
311 1 311  4.266154 1.005740 1.870664  0.000000
312 1 312  9.682551 3.124338 0.471941  0.000000
313 1 313  0.888925 0.198271 6.592464  0.000000
314 1 314  4.720333 8.538558 2.294288  0.000000
315 1 315  0.870783 9.608376 1.055312  0.000000
316 1 316  1.529008 1.399432 3.238832  0.000000
317 1 317  2.703350 9.135880 5.870001  0.000000
318 1 318  7.694677 8.329242 7.591138  0.000000
319 1 319  3.397280 5.570982 7.793281  0.000000
320 1 320  6.686426 5.949193 1.172858  0.000000
321 1 321  4.825246 1.251027 2.349135  0.000000
322 1 322  0.140547 6.818077 6.326751  0.000000
323 1 323  7.042127 9.233220 6.501913  0.000000
324 1 324  1.113889 0.494751 8.222214  0.000000
325 1 325  0.020082 9.160687 8.980865  0.000000
326 1 326  6.431538 6.194119 9.233024  0.000000
327 1 327  9.701025 2.036240 2.587596  0.000000
328 1 328  4.419234 0.136299 8.703257  0.000000
329 1 329  2.747030 8.497916 8.014027  0.000000
330 1 330  3.776068 6.766453 2.886204  0.000000
331 1 331  1.639730 8.004784 2.832044  0.000000
332 1 332  9.082806 6.105055 7.128609  0.000000
333 1 333  2.402382 0.007134 8.252271  0.000000
334 1 334  7.630331 0.575442 7.759826  0.000000
335 1 335  9.373055 1.325591 3.758867  0.000000
336 1 336  4.485234 0.580981 8.300562  0.000000
337 1 337  7.410711 4.351204 6.936486  0.000000
338 1 338  9.924052 4.153736 5.851252  0.000000
339 1 339  1.442741 6.414750 1.507843  0.000000
340 1 340  0.331596 5.993053 4.978213  0.000000
341 1 341  1.614660 3.453091 4.220910  0.000000
342 1 342  1.224503 5.661759 6.435153  0.000000
343 1 343  0.875403 8.188656 9.134854  0.000000
344 1 344  3.778907 6.002149 7.369622  0.000000
345 1 345  4.860169 6.551173 5.913481  0.000000
346 1 346  8.950556 1.284442 7.120130  0.000000
347 1 347  7.052306 3.318341 2.505178  0.000000
348 1 348  8.221128 6.901370 5.150187  0.000000
349 1 349  6.476440 7.815037 4.602302  0.000000
350 1 350  6.900570 1.954996 2.775012  0.000000
351 1 351  4.417585 9.039555 7.771156  0.000000
352 1 352  5.807868 7.781885 4.851887  0.000000
353 1 353  6.115642 3.627601 2.865218  0.000000
354 1 354  1.356371 3.894817 9.044930  0.000000
355 1 355  7.066818 2.870857 5.002121  0.000000
356 1 356  6.989851 0.266046 0.427291  0.000000
357 1 357  2.457516 7.717917 8.295846  0.000000
358 1 358  4.144366 3.615194 0.026972  0.000000
359 1 359  3.074001 4.630688 4.126027  0.000000
360 1 360  4.703062 9.718810 5.986325  0.000000
361 1 361  6.512989 8.701715 1.236485  0.000000
362 1 362  3.930337 9.536081 3.043841  0.000000
363 1 363  4.866303 3.640985 4.182328  0.000000
364 1 364  2.013169 6.885361 2.769313  0.000000
365 1 365  3.235470 6.935953 4.938014  0.000000
366 1 366  3.097871 1.761682 7.703795  0.000000
367 1 367  4.274018 3.420367 1.403212  0.000000
368 1 368  6.527750 8.071852 8.116802  0.000000
369 1 369  4.716387 9.525756 1.982188  0.000000
370 1 370  5.116498 3.327290 4.130652  0.000000
371 1 371  0.988619 8.985430 4.939095  0.000000
372 1 372  8.316357 9.394646 6.821670  0.000000
373 1 373  5.406067 8.229977 4.466352  0.000000
374 1 374  4.781769 8.472177 2.571126  0.000000
375 1 375  6.302094 2.758690 0.003858  0.000000
376 1 376  5.490406 0.968270 1.312220  0.000000
377 1 377  7.057529 9.472839 8.080803  0.000000
378 1 378  1.766354 0.725998 7.404434  0.000000
379 1 379  2.689672 5.001566 1.329774  0.000000
380 1 380  3.017037 0.160570 7.651470  0.000000
381 1 381  5.730076 5.210083 4.175127  0.000000
382 1 382  5.763938 9.852053 8.829657  0.000000
383 1 383  6.664042 0.409508 2.533561  0.000000
384 1 384  5.655569 0.876540 2.622346  0.000000
385 1 385  5.769892 7.275396 4.412631  0.000000
386 1 386  1.773387 3.872965 3.910820  0.000000
387 1 387  5.823304 3.111561 7.345245  0.000000
388 1 388  4.461473 6.788748 6.979614  0.000000
389 1 389  7.287426 9.434671 5.552235  0.000000
390 1 390  1.226259 2.641890 8.476916  0.000000
391 1 391  7.267194 3.145088 7.973414  0.000000
392 1 392  9.615768 6.442246 2.508784  0.000000
393 1 393  1.610072 1.314665 0.051439  0.000000
394 1 394  1.739504 2.816859 7.345530  0.000000
395 1 395  7.058614 5.552495 3.792199  0.000000
396 1 396  1.114372 6.033295 6.652347  0.000000
397 1 397  2.749807 7.294926 9.755808  0.000000
398 1 398  4.902074 1.358183 7.913714  0.000000
399 1 399  4.657068 2.545007 2.949714  0.000000
400 1 400  7.551402 2.121443 1.287097  0.000000
401 1 401  5.263125 9.844415 1.602520  0.000000
402 1 402  3.772872 9.868095 7.664274  0.000000
403 1 403  3.730848 8.435286 1.408332  0.000000
404 1 404  1.575804 6.955946 1.262953  0.000000
405 1 405  5.913910 0.412167 5.816791  0.000000
406 1 406  4.177833 9.237586 5.444328  0.000000
407 1 407  5.239626 3.854393 7.387265  0.000000
408 1 408  2.343353 7.466560 6.705425  0.000000
409 1 409  6.758105 6.861874 5.369995  0.000000
410 1 410  1.657801 6.105324 8.357826  0.000000
411 1 411  9.150799 5.347804 5.719069  0.000000
412 1 412  6.550494 0.409697 7.349802  0.000000
413 1 413  6.692406 2.475774 4.507235  0.000000
414 1 414  0.796267 8.914580 0.160647  0.000000
415 1 415  8.658957 8.496221 3.071216  0.000000
416 1 416  1.731021 8.728145 2.851654  0.000000
417 1 417  7.997810 5.476678 9.128803  0.000000
418 1 418  2.310294 5.593009 8.794909  0.000000
419 1 419  5.922901 0.999241 9.994442  0.000000
420 1 420  4.595678 8.760355 7.967048  0.000000
421 1 421  3.039107 7.494224 2.922925  0.000000
422 1 422  5.448649 2.631315 8.905722  0.000000
423 1 423  3.402087 1.426672 0.876789  0.000000
424 1 424  2.238167 6.622340 9.964065  0.000000
425 1 425  6.715546 4.192347 9.307385  0.000000
426 1 426  7.341600 9.432993 0.194765  0.000000
427 1 427  0.460943 4.171431 1.513220  0.000000
428 1 428  7.845469 2.982872 5.238395  0.000000
429 1 429  4.108085 6.230855 0.647053  0.000000
430 1 430  8.345508 7.368418 7.016283  0.000000
431 1 431  9.988257 1.575009 4.389290  0.000000
432 1 432  9.397118 3.615283 0.337534  0.000000
433 1 433  3.994747 8.376348 5.082347  0.000000
434 1 434  7.997380 5.596419 0.505975  0.000000
435 1 435  8.292649 2.712609 0.896331  0.000000
436 1 436  9.100668 0.138752 4.361529  0.000000
437 1 437  5.687174 2.403884 7.189572  0.000000
438 1 438  6.504425 3.731692 6.382781  0.000000
439 1 439  4.004162 4.102139 8.710841  0.000000
440 1 440  7.641147 6.294363 7.425554  0.000000
441 1 441  2.409466 0.812641 9.649148  0.000000
442 1 442  3.749094 2.211630 7.223997  0.000000
443 1 443  2.919138 0.729867 7.702669  0.000000
444 1 444  4.299801 3.776870 3.454098  0.000000
445 1 445  0.103649 3.786783 8.275173  0.000000
446 1 446  0.298593 5.984858 6.343769  0.000000
447 1 447  6.225166 9.735256 2.608732  0.000000
448 1 448  4.241758 6.126277 8.070996  0.000000
449 1 449  7.698379 9.707508 2.830836  0.000000
450 1 450  5.853139 7.828908 7.032328  0.000000
451 1 451  0.203119 0.065126 3.204965  0.000000
452 1 452  1.641669 0.349139 4.986581  0.000000
453 1 453  8.690460 5.740996 2.809071  0.000000
454 1 454  3.089876 6.495440 4.967990  0.000000
455 1 455  3.580942 6.260829 1.187199  0.000000
456 1 456  4.257606 2.386216 7.649259  0.000000
457 1 457  0.374851 3.453903 5.400409  0.000000
458 1 458  0.967843 1.433154 3.317997  0.000000
459 1 459  6.533631 9.605345 9.358580  0.000000
460 1 460  9.504668 6.790137 1.513706  0.000000
461 1 461  3.978479 8.245772 7.750024  0.000000
462 1 462  7.526567 4.874557 7.714728  0.000000
463 1 463  6.541423 7.930316 2.192400  0.000000
464 1 464  9.822909 9.397694 1.321401  0.000000
465 1 465  6.297751 7.479859 5.221387  0.000000
466 1 466  9.255609 3.612118 0.041546  0.000000
467 1 467  0.789349 0.585548 7.532488  0.000000
468 1 468  6.503146 4.939160 0.302280  0.000000
469 1 469  2.762277 6.017930 3.882783  0.000000
470 1 470  7.299864 6.380127 5.021901  0.000000
471 1 471  0.480813 7.318655 0.417321  0.000000
472 1 472  2.917791 8.111442 1.225496  0.000000
473 1 473  3.894823 5.919428 5.737390  0.000000
474 1 474  3.374846 9.175930 4.098771  0.000000
475 1 475  3.039607 3.681399 1.456692  0.000000
476 1 476  8.880247 2.089124 4.248847  0.000000
477 1 477  7.944082 1.933669 1.790765  0.000000
478 1 478  3.673243 6.129145 7.853123  0.000000
479 1 479  2.537579 5.671844 1.997653  0.000000
480 1 480  0.278168 9.749101 0.593420  0.000000
481 1 481  3.240466 7.332083 1.319215  0.000000
482 1 482  5.932793 5.511549 1.904927  0.000000
483 1 483  9.987913 7.351205 6.326979  0.000000
484 1 484  1.653271 5.365488 2.793878  0.000000
485 1 485  8.242326 5.515357 2.432313  0.000000
486 1 486  7.416779 5.077033 5.099411  0.000000
487 1 487  0.429958 2.758816 5.294459  0.000000
488 1 488  5.067369 7.034549 9.141581  0.000000
489 1 489  0.332900 9.332933 9.023255  0.000000
490 1 490  9.789301 7.303635 3.346442  0.000000
491 1 491  5.489515 8.973443 0.119294  0.000000
492 1 492  3.232004 3.606662 8.095136  0.000000
493 1 493  2.124317 5.444002 0.427371  0.000000
494 1 494  8.630201 6.772382 3.448403  0.000000
495 1 495  0.831610 5.917878 4.300722  0.000000
496 1 496  6.490531 6.488871 1.154065  0.000000
497 1 497  0.489176 1.744877 4.881139  0.000000
498 1 498  9.053953 1.537754 4.208829  0.000000
499 1 499  1.531045 9.291551 9.899975  0.000000
500 1 500  1.347965 5.886538 1.783532  0.000000
501 1 501  2.749410 2.610037 8.281466  0.000000
502 1 502  4.086338 2.961001 5.432611  0.000000
503 1 503  3.140008 0.062544 4.545090  0.000000
504 1 504  0.642007 5.897926 8.646422  0.000000
505 1 505  5.580555 6.450671 9.445576  0.000000
506 1 506  0.301163 6.399779 0.452080  0.000000
507 1 507  8.240664 5.912906 0.297836  0.000000
508 1 508  1.830016 8.125540 6.882278  0.000000
509 1 509  6.239570 9.412736 4.900719  0.000000
510 1 510  4.155673 2.670128 3.883502  0.000000
511 1 511  8.231461 0.790155 9.604980  0.000000
512 1 512  9.724611 5.137336 3.851706  0.000000
513 1 513  1.201308 6.049997 3.971385  0.000000
514 1 514  3.371819 8.562359 5.335473  0.000000
515 1 515  9.332603 7.683232 9.781132  0.000000
516 1 516  5.307497 5.548000 4.927714  0.000000
517 1 517  1.909817 0.514647 1.510355  0.000000
518 1 518  6.317048 8.712868 3.983339  0.000000
519 1 519  8.441534 4.585978 3.167844  0.000000
520 1 520  3.496838 2.791514 7.356919  0.000000
521 1 521  9.045634 2.584588 7.446845  0.000000
522 1 522  0.173325 2.944609 2.425309  0.000000
523 1 523  6.139486 1.538637 4.121887  0.000000
524 1 524  7.060201 3.080392 2.616769  0.000000
525 1 525  0.669292 6.098479 8.212058  0.000000
526 1 526  1.823558 2.361217 3.889492  0.000000
527 1 527  1.252237 2.371114 7.880437  0.000000
528 1 528  9.739165 2.616583 7.862417  0.000000
529 1 529  7.903491 8.861572 6.548117  0.000000
530 1 530  7.360028 7.956908 6.654769  0.000000
531 1 531  3.198189 6.270585 2.725070  0.000000
532 1 532  4.217797 0.932544 4.595627  0.000000
533 1 533  3.012107 6.557920 8.021023  0.000000
534 1 534  5.888645 1.668997 1.984953  0.000000
535 1 535  8.320147 5.894190 9.328834  0.000000
536 1 536  9.600505 0.802889 8.954634  0.000000
537 1 537  0.277629 9.552710 7.151601  0.000000
538 1 538  8.931119 6.502362 3.307685  0.000000
539 1 539  1.709626 7.743285 2.707986  0.000000
540 1 540  2.034804 3.849100 5.946918  0.000000
541 1 541  9.075272 0.501943 2.159142  0.000000
542 1 542  6.004146 3.438600 7.026773  0.000000
543 1 543  3.013409 4.906394 5.438273  0.000000
544 1 544  0.129276 9.520226 0.951101  0.000000
545 1 545  1.509461 3.929177 2.900094  0.000000
546 1 546  6.083283 1.102030 4.730201  0.000000
547 1 547  9.036169 1.835291 1.372071  0.000000
548 1 548  0.179521 9.747098 3.109702  0.000000
549 1 549  0.661543 2.290495 0.230867  0.000000
550 1 550  8.816674 5.229537 8.659803  0.000000
551 1 551  7.720049 1.172843 7.392442  0.000000
552 1 552  1.956062 7.770904 9.689443  0.000000
553 1 553  3.673801 7.259254 6.992805  0.000000
554 1 554  1.135884 7.248750 2.913269  0.000000
555 1 555  1.133416 0.655771 0.318024  0.000000
556 1 556  2.486757 8.671186 0.874242  0.000000
557 1 557  3.180024 1.079811 8.638015  0.000000
558 1 558  1.879479 8.785076 3.673051  0.000000
559 1 559  9.942609 3.712129 4.305648  0.000000
560 1 560  2.239134 2.892898 2.494747  0.000000
561 1 561  4.503696 4.303765 6.686137  0.000000
562 1 562  4.192575 9.051739 2.628937  0.000000
563 1 563  1.003903 3.936235 2.803548  0.000000
564 1 564  2.978874 8.319866 3.828858  0.000000
565 1 565  6.898056 0.193449 3.522377  0.000000
566 1 566  3.322276 9.423852 3.083399  0.000000
567 1 567  0.458314 1.031541 6.383520  0.000000
568 1 568  8.530982 1.663487 8.299254  0.000000
569 1 569  0.031220 0.413059 2.031654  0.000000
570 1 570  9.201635 8.442668 2.983428  0.000000
571 1 571  8.259513 2.219221 0.566945  0.000000
572 1 572  4.720329 6.917623 4.855761  0.000000
573 1 573  9.788369 6.582507 5.782915  0.000000
574 1 574  7.055735 5.752943 9.600487  0.000000
575 1 575  5.335571 0.305526 5.878447  0.000000
576 1 576  3.895847 3.939713 0.800531  0.000000
577 1 577  5.103597 5.028370 9.015019  0.000000
578 1 578  0.033429 5.838593 3.423463  0.000000
579 1 579  0.190896 6.044107 9.683467  0.000000
580 1 580  1.594300 4.365702 7.991364  0.000000
581 1 581  4.610719 6.168272 6.005345  0.000000
582 1 582  2.053449 8.781536 7.022748  0.000000
583 1 583  4.027086 6.967139 1.151438  0.000000
584 1 584  1.155145 8.707063 7.702847  0.000000
585 1 585  5.477111 7.101662 1.895787  0.000000
586 1 586  3.188148 0.376523 6.153411  0.000000
587 1 587  9.538610 1.889527 9.744561  0.000000
588 1 588  8.947335 1.569467 1.709485  0.000000
589 1 589  4.371418 7.226905 8.305560  0.000000
590 1 590  1.640810 2.257909 7.317084  0.000000
591 1 591  7.172609 9.461640 4.598289  0.000000
592 1 592  3.629298 8.037954 0.526634  0.000000
593 1 593  4.270867 8.715940 1.863938  0.000000
594 1 594  1.092819 6.058794 4.469823  0.000000
595 1 595  9.000120 9.493843 8.150558  0.000000
596 1 596  4.740414 7.556190 3.918457  0.000000
597 1 597  2.180182 0.862927 0.030467  0.000000
598 1 598  8.674132 0.624582 8.664686  0.000000
599 1 599  3.174053 5.857071 3.878620  0.000000
600 1 600  9.976305 4.279160 4.810544  0.000000
601 1 601  8.550421 5.944715 9.997824  0.000000
602 1 602  0.624811 5.915145 3.885102  0.000000
603 1 603  9.028338 5.121129 5.929393  0.000000
604 1 604  6.556712 9.567492 0.147007  0.000000
605 1 605  6.367554 0.611026 3.442324  0.000000
606 1 606  2.069120 3.547601 4.262253  0.000000
607 1 607  4.323992 1.009987 0.079836  0.000000
608 1 608  7.707134 2.654637 7.798471  0.000000
609 1 609  6.208252 7.842950 4.615822  0.000000
610 1 610  9.636950 8.106320 6.608145  0.000000
611 1 611  6.460560 8.525437 0.795432  0.000000
612 1 612  0.313620 9.380478 7.482078  0.000000
613 1 613  8.183780 3.047132 5.601582  0.000000
614 1 614  3.965086 3.774661 7.152039  0.000000
615 1 615  3.815090 3.026247 2.829945  0.000000
616 1 616  0.982140 7.388081 4.037343  0.000000
617 1 617  0.116294 1.189816 5.518378  0.000000
618 1 618  4.997499 0.585127 4.324724  0.000000
619 1 619  8.390563 4.124412 1.341168  0.000000
620 1 620  0.731028 9.245214 2.983850  0.000000
621 1 621  6.717109 1.031667 1.702320  0.000000
622 1 622  4.722364 7.090307 0.942695  0.000000
623 1 623  9.203089 0.040724 5.481792  0.000000
624 1 624  1.537175 5.654707 9.070101  0.000000
625 1 625  3.241320 6.686980 0.933059  0.000000
626 1 626  1.664489 6.502751 4.979053  0.000000