ITEM: TIMESTEP
5000
ITEM: NUMBER OF ATOMS
1000
ITEM: BOX BOUNDS pp pp pp
0.000000 20.000000
0.000000 20.000000
0.000000 20.000000
ITEM: ATOMS id type mol x y z q
1 1 1  14.205154 6.569396 3.306047  0.000000
2 1 2  19.366024 10.075924 18.351055  0.000000
3 1 3  15.288675 5.236980 8.284489  0.000000
4 1 4  18.765429 7.495946 4.729442  0.000000
5 1 5  3.986622 9.448785 11.092428  0.000000
6 1 6  5.822708 17.009218 19.889709  0.000000
7 1 7  11.398128 10.370444 0.551267  0.000000
8 1 8  10.064059 0.493558 8.250092  0.000000
9 1 9  10.528069 1.009686 2.483576  0.000000
10 1 10  16.283125 0.904912 9.708529  0.000000
11 1 11  18.297783 7.628693 13.668255  0.000000
12 1 12  12.471265 2.885741 10.943399  0.000000
13 1 13  14.674468 18.805401 4.735171  0.000000
14 1 14  17.263605 11.265460 5.714329  0.000000
15 1 15  10.798108 18.528084 18.606768  0.000000
16 1 16  13.451812 18.910892 6.871732  0.000000
17 1 17  17.115969 3.492019 13.382796  0.000000
18 1 18  15.232460 16.723431 5.588905  0.000000
19 1 19  18.724285 11.702452 5.436945  0.000000
20 1 20  9.567673 7.153805 13.666775  0.000000
21 1 21  13.481172 14.080420 16.302734  0.000000
22 1 22  16.204582 19.816761 8.827610  0.000000
23 1 23  15.042397 1.559690 14.664783  0.000000
24 1 24  15.149769 15.028569 2.902820  0.000000
25 1 25  9.950745 2.486053 15.821445  0.000000
26 1 26  11.851426 9.508676 1.370797  0.000000
27 1 27  13.137969 18.239586 9.930376  0.000000
28 1 28  18.863825 2.555862 19.241999  0.000000
29 1 29  4.233268 10.036571 7.386714  0.000000
30 1 30  7.252210 11.209190 10.705542  0.000000
31 1 31  8.317070 7.686913 4.577240  0.000000
32 1 32  14.154660 8.549581 17.666737  0.000000
33 1 33  5.423347 17.416559 2.804538  0.000000
34 1 34  9.901649 16.892740 6.662213  0.000000
35 1 35  4.890996 4.142275 10.807524  0.000000
36 1 36  5.283060 14.848193 1.752248  0.000000
37 1 37  4.029566 9.297362 15.551131  0.000000
38 1 38  3.928480 10.115449 14.449815  0.000000
39 1 39  7.796491 8.121430 6.240539  0.000000
40 1 40  10.229319 8.265515 17.745270  0.000000
41 1 41  11.720572 11.335229 1.589637  0.000000
42 1 42  12.096194 15.654793 17.678751  0.000000
43 1 43  6.851547 10.221169 0.953647  0.000000
44 1 44  9.736245 3.102424 13.153281  0.000000
45 1 45  17.068148 11.670594 6.015233  0.000000
46 1 46  6.179917 0.363048 5.034111  0.000000
47 1 47  6.118372 18.264061 2.770788  0.000000
48 1 48  0.142463 12.887391 18.701981  0.000000
49 1 49  2.600602 7.945705 2.841546  0.000000
50 1 50  4.439040 3.874208 19.286972  0.000000
51 1 51  16.329151 0.821622 4.071424  0.000000
52 1 52  3.763822 0.130090 9.625163  0.000000
53 1 53  15.232843 2.387424 9.897034  0.000000
54 1 54  7.734914 2.625211 14.970541  0.000000
55 1 55  2.425902 13.049626 3.050507  0.000000
56 1 56  17.530081 6.417322 6.746142  0.000000
57 1 57  6.206300 1.370638 8.754610  0.000000
58 1 58  11.738109 13.181960 7.121231  0.000000
59 1 59  13.882489 17.416342 17.849531  0.000000
60 1 60  10.633762 0.738407 8.466309  0.000000
61 1 61  16.461632 3.801139 10.155579  0.000000
62 1 62  7.401951 19.355892 0.448092  0.000000
63 1 63  5.150790 17.288876 11.856019  0.000000
64 1 64  19.706524 4.024077 13.235847  0.000000
65 1 65  15.712091 17.306303 13.833077  0.000000
66 1 66  15.000444 1.568945 3.588938  0.000000
67 1 67  1.423962 7.150958 11.211856  0.000000
68 1 68  4.237663 1.240537 7.828995  0.000000
69 1 69  11.815953 1.925492 17.600069  0.000000
70 1 70  10.738849 2.448293 14.865911  0.000000
71 1 71  7.809113 4.068217 1.184244  0.000000
72 1 72  3.835400 4.625510 4.466863  0.000000
73 1 73  13.601160 19.817554 6.639372  0.000000
74 1 74  0.044310 9.611710 5.616006  0.000000
75 1 75  1.337343 0.960620 12.476746  0.000000
76 1 76  7.734578 2.620634 4.408433  0.000000
77 1 77  6.357678 11.754375 1.013965  0.000000
78 1 78  11.318960 11.733576 0.405764  0.000000
79 1 79  0.220083 16.022753 13.442063  0.000000
80 1 80  0.940033 7.619037 9.694918  0.000000
81 1 81  10.360396 8.998094 15.276321  0.000000
82 1 82  1.757909 10.875176 18.549726  0.000000
83 1 83  0.619733 12.349614 2.745013  0.000000
84 1 84  0.163896 16.878071 9.278448  0.000000
85 1 85  17.040741 11.259980 13.132317  0.000000
86 1 86  19.349092 18.152067 9.699156  0.000000
87 1 87  17.919453 19.500340 13.404688  0.000000
88 1 88  19.387880 10.454042 6.355279  0.000000
89 1 89  7.512745 13.240980 10.749745  0.000000
90 1 90  8.078460 14.854287 0.401005  0.000000
91 1 91  17.092726 19.616276 12.983487  0.000000
92 1 92  18.498104 17.906137 14.020150  0.000000
93 1 93  18.743980 13.601980 15.887165  0.000000
94 1 94  15.629728 11.774962 10.997632  0.000000
95 1 95  11.319512 10.265175 11.208824  0.000000
96 1 96  16.025940 15.970494 7.603829  0.000000
97 1 97  3.358565 1.300612 12.061687  0.000000
98 1 98  16.838282 0.759547 14.118520  0.000000
99 1 99  12.941084 12.799034 0.735055  0.000000
100 1 100  18.786589 8.673345 16.787714  0.000000
101 1 101  5.982193 1.855561 18.206017  0.000000
102 1 102  13.197586 1.372221 9.163874  0.000000
103 1 103  16.088421 19.812990 13.336579  0.000000
104 1 104  18.289680 9.243869 0.921218  0.000000
105 1 105  7.665649 10.684772 5.347688  0.000000
106 1 106  0.343506 6.097652 11.750458  0.000000
107 1 107  18.354507 8.525563 9.151117  0.000000
108 1 108  3.310762 2.262034 0.049733  0.000000
109 1 109  13.702106 9.121383 10.091866  0.000000
110 1 110  15.596755 13.574099 17.902460  0.000000
111 1 111  13.529848 2.591643 5.555396  0.000000
112 1 112  2.981357 17.543097 6.119729  0.000000
113 1 113  1.989874 14.994774 15.708978  0.000000
114 1 114  11.208570 6.505018 1.545294  0.000000
115 1 115  3.361296 16.712507 10.441491  0.000000
116 1 116  3.334095 9.714612 14.573467  0.000000
117 1 117  1.249758 13.954711 14.007236  0.000000
118 1 118  10.312244 18.140360 7.267075  0.000000
119 1 119  19.979321 0.832635 10.527820  0.000000
120 1 120  5.329808 14.920028 8.817504  0.000000
121 1 121  0.480426 11.686725 2.387066  0.000000
122 1 122  13.309085 11.551597 2.481329  0.000000
123 1 123  6.317826 10.572650 14.814774  0.000000
124 1 124  18.377630 4.793995 11.459798  0.000000
125 1 125  16.084833 3.144436 10.927858  0.000000
126 1 126  5.631930 15.685846 6.970480  0.000000
127 1 127  17.493664 14.711690 15.477071  0.000000
128 1 128  10.575038 7.629475 12.793473  0.000000
129 1 129  0.463829 17.258257 18.000118  0.000000
130 1 130  10.292529 11.456506 18.666796  0.000000
131 1 131  2.742480 13.398197 0.192962  0.000000
132 1 132  8.160705 2.954937 13.530949  0.000000
133 1 133  13.877080 18.825014 19.702105  0.000000
134 1 134  6.376604 19.543051 19.025007  0.000000
135 1 135  16.557276 0.780382 13.771033  0.000000
136 1 136  15.849349 19.099218 5.520300  0.000000
137 1 137  0.920768 0.639090 9.757872  0.000000
138 1 138  13.492896 9.456475 13.932810  0.000000
139 1 139  16.696039 17.964106 12.724072  0.000000
140 1 140  2.367749 2.283511 15.799518  0.000000
141 1 141  15.072627 5.115957 2.219431  0.000000
142 1 142  18.582804 10.269069 1.581508  0.000000
143 1 143  6.465134 18.575253 13.154080  0.000000
144 1 144  1.734292 17.493032 16.128239  0.000000
145 1 145  13.138696 17.521692 3.613919  0.000000
146 1 146  17.051495 2.406355 11.464146  0.000000
147 1 147  11.015978 16.823629 17.376480  0.000000
148 1 148  6.641028 19.572584 8.166929  0.000000
149 1 149  1.054427 12.549700 18.182211  0.000000
150 1 150  2.729245 6.224857 11.075051  0.000000
151 1 151  9.977928 12.432438 7.153855  0.000000
152 1 152  14.201058 2.287570 14.887403  0.000000
153 1 153  6.183637 8.026944 17.823462  0.000000
154 1 154  4.935866 2.416776 3.829892  0.000000
155 1 155  14.477866 18.447659 8.652882  0.000000
156 1 156  13.679789 14.415537 14.939743  0.000000
157 1 157  17.958183 11.697572 9.800048  0.000000
158 1 158  14.373153 7.393795 12.290709  0.000000
159 1 159  9.132282 3.533069 18.571966  0.000000
160 1 160  15.089078 5.163869 9.665958  0.000000
161 1 161  2.188732 15.017770 4.425649  0.000000
162 1 162  7.417956 18.885698 4.703671  0.000000
163 1 163  19.453987 12.378451 17.593761  0.000000
164 1 164  19.221224 2.355111 11.821898  0.000000
165 1 165  0.903534 3.842512 9.681185  0.000000
166 1 166  4.912916 2.332069 15.108938  0.000000
167 1 167  3.501642 9.720745 16.510492  0.000000
168 1 168  17.059774 8.443704 13.756592  0.000000
169 1 169  3.960720 14.068666 16.075510  0.000000
170 1 170  7.776433 11.714668 13.298065  0.000000
171 1 171  6.084313 7.468659 6.525232  0.000000
172 1 172  8.656362 4.742730 12.256550  0.000000
173 1 173  15.066710 0.757444 0.994727  0.000000
174 1 174  5.399642 18.788336 4.669748  0.000000
175 1 175  2.360446 18.519684 1.432005  0.000000
176 1 176  10.705843 9.097384 2.919087  0.000000
177 1 177  1.263154 10.359498 3.777520  0.000000
178 1 178  11.432243 18.234161 18.324886  0.000000
179 1 179  1.523720 16.208498 4.612435  0.000000
180 1 180  18.895390 5.522879 18.937532  0.000000
181 1 181  15.646059 18.069386 7.963477  0.000000
182 1 182  6.672364 17.740915 18.060560  0.000000
183 1 183  17.999037 0.034196 7.777755  0.000000
184 1 184  8.460921 11.624063 4.867741  0.000000
185 1 185  12.937173 1.853732 14.584723  0.000000
186 1 186  18.462904 1.413243 16.347492  0.000000
187 1 187  17.479752 3.273391 1.096837  0.000000
188 1 188  12.541456 13.124077 6.255991  0.000000
189 1 189  3.889349 10.621721 5.049316  0.000000
190 1 190  14.892428 14.716253 13.557955  0.000000
191 1 191  6.065836 14.341941 18.193226  0.000000
192 1 192  13.189829 16.772175 1.946397  0.000000
193 1 193  3.178732 7.148657 18.220284  0.000000
194 1 194  13.000354 19.795031 2.996958  0.000000
195 1 195  9.950347 11.860648 5.408818  0.000000
196 1 196  18.195881 2.983025 6.566678  0.000000
197 1 197  4.945654 3.632595 11.054937  0.000000
198 1 198  1.743067 18.907188 16.200775  0.000000
199 1 199  15.692992 4.260777 13.738478  0.000000
200 1 200  1.154376 3.709763 16.708714  0.000000
201 1 201  8.799623 12.282098 18.083588  0.000000
202 1 202  9.681578 2.137500 16.200310  0.000000
203 1 203  1.323309 7.405425 5.371065  0.000000
204 1 204  15.089510 9.718204 0.507429  0.000000
205 1 205  11.145926 2.377130 18.315042  0.000000
206 1 206  6.141500 7.213071 16.561527  0.000000
207 1 207  11.623883 12.451012 4.575395  0.000000
208 1 208  5.374510 13.603477 13.120492  0.000000
209 1 209  3.382752 4.317538 19.647003  0.000000
210 1 210  13.164326 1.520511 15.345785  0.000000
211 1 211  18.772276 13.275228 3.004350  0.000000
212 1 212  6.055936 16.609741 7.921274  0.000000
213 1 213  15.972278 11.831899 19.201954  0.000000
214 1 214  1.753026 16.248243 10.666514  0.000000
215 1 215  3.110528 10.687296 5.563831  0.000000
216 1 216  13.774089 7.838748 6.140929  0.000000
217 1 217  12.839167 2.576888 5.963562  0.000000
218 1 218  17.288782 19.199247 3.412612  0.000000
219 1 219  16.742565 16.008617 4.711230  0.000000
220 1 220  7.030936 16.544191 13.241848  0.000000
221 1 221  10.620541 7.398538 10.525465  0.000000
222 1 222  15.174376 3.705873 16.255632  0.000000
223 1 223  4.412293 16.208965 13.664789  0.000000
224 1 224  6.576477 15.742826 2.969602  0.000000
225 1 225  2.201726 5.359867 19.550220  0.000000
226 1 226  8.715084 18.430948 11.104046  0.000000
227 1 227  12.161001 3.029600 12.976462  0.000000
228 1 228  6.561841 15.365932 13.929345  0.000000
229 1 229  18.338436 19.597359 8.016592  0.000000
230 1 230  9.319822 0.918294 4.937840  0.000000
231 1 231  10.214835 11.670415 11.982130  0.000000
232 1 232  0.892650 16.268583 15.043728  0.000000
233 1 233  16.864641 10.306038 7.587859  0.000000
234 1 234  2.008587 19.696079 11.185103  0.000000
235 1 235  0.746432 16.549519 19.649464  0.000000
236 1 236  3.397106 15.555527 8.720292  0.000000
237 1 237  7.270411 9.245311 9.113526  0.000000
238 1 238  4.630153 16.034208 19.829487  0.000000
239 1 239  19.873636 13.848534 11.888850  0.000000
240 1 240  4.657040 16.625177 18.316299  0.000000
241 1 241  12.046861 5.266305 3.907867  0.000000
242 1 242  8.830031 13.485067 3.442233  0.000000
243 1 243  11.777575 1.550803 17.036901  0.000000
244 1 244  5.026292 11.363364 11.381703  0.000000
245 1 245  5.334909 1.117305 7.817750  0.000000
246 1 246  10.203175 6.007833 11.922026  0.000000
247 1 247  0.298998 12.519760 13.933505  0.000000
248 1 248  11.215239 5.709018 9.462909  0.000000
249 1 249  2.095024 7.251203 18.154404  0.000000
250 1 250  14.905597 16.122374 0.079116  0.000000
251 1 251  11.636700 9.846991 19.673637  0.000000
252 1 252  10.796329 11.828188 15.451616  0.000000
253 1 253  4.691144 10.899810 16.908382  0.000000
254 1 254  8.766523 9.709129 4.114418  0.000000
255 1 255  3.652975 4.677359 1.724623  0.000000
256 1 256  1.207364 14.078585 15.846375  0.000000
257 1 257  14.187562 4.838611 6.937690  0.000000
258 1 258  15.905289 12.555462 6.977621  0.000000
259 1 259  10.154019 10.231742 3.544279  0.000000
260 1 260  10.856897 14.860788 0.271918  0.000000
261 1 261  4.717592 17.619951 8.310972  0.000000
262 1 262  9.996709 5.828267 17.341902  0.000000
263 1 263  12.280687 6.206721 18.794861  0.000000
264 1 264  7.042870 1.114579 4.430145  0.000000
265 1 265  2.634562 0.869528 3.760969  0.000000
266 1 266  4.324321 6.785854 3.868362  0.000000
267 1 267  5.611158 0.684276 6.245725  0.000000
268 1 268  6.289784 12.332627 4.852990  0.000000
269 1 269  14.319808 3.726715 1.371621  0.000000
270 1 270  1.808768 11.441153 16.319021  0.000000
271 1 271  7.564091 13.530005 7.273536  0.000000
272 1 272  0.153203 14.120637 9.658726  0.000000
273 1 273  12.059770 14.742688 1.456421  0.000000
274 1 274  9.015953 15.085511 4.528345  0.000000
275 1 275  17.085749 8.571479 2.708981  0.000000
276 1 276  0.452139 19.327185 19.812275  0.000000
277 1 277  8.670990 12.222643 17.693241  0.000000
278 1 278  8.802369 19.177881 19.791388  0.000000
279 1 279  18.208572 11.649374 17.928997  0.000000
280 1 280  9.433576 14.996910 9.743661  0.000000
281 1 281  17.108768 9.301972 17.658545  0.000000
282 1 282  19.962645 2.691747 15.052777  0.000000
283 1 283  8.726877 11.759097 17.788963  0.000000
284 1 284  2.788219 10.934101 15.635381  0.000000
285 1 285  15.632987 14.546098 4.894109  0.000000
286 1 286  8.835943 9.560198 1.427182  0.000000
287 1 287  2.132945 6.691604 3.993532  0.000000
288 1 288  13.564174 16.803055 4.858550  0.000000
289 1 289  1.554595 3.515343 0.928378  0.000000
290 1 290  19.790123 2.243455 10.626302  0.000000
291 1 291  15.438745 13.433182 19.764771  0.000000
292 1 292  10.646634 6.926015 16.646935  0.000000
293 1 293  6.508899 19.995026 12.666086  0.000000
294 1 294  7.365988 14.096564 12.441440  0.000000
295 1 295  9.461449 0.597635 1.314516  0.000000
296 1 296  8.309875 7.689030 0.683098  0.000000
297 1 297  16.551809 15.581327 17.915001  0.000000
298 1 298  4.393246 12.670946 16.903629  0.000000
299 1 299  3.085741 10.587007 14.110117  0.000000
300 1 300  7.834105 19.867695 17.212902  0.000000
301 1 301  6.910055 9.209229 5.310547  0.000000
302 1 302  2.090896 0.340910 14.456957  0.000000
303 1 303  14.703872 8.665535 3.545900  0.000000
304 1 304  5.642902 6.423436 1.026183  0.000000
305 1 305  17.496561 18.587145 6.967948  0.000000
306 1 306  6.588879 0.064603 18.150772  0.000000
307 1 307  2.463022 1.939188 16.941015  0.000000
308 1 308  14.366626 10.973715 6.323541  0.000000
309 1 309  11.800470 7.598029 10.565185  0.000000
310 1 310  7.339093 7.754570 4.206886  0.000000
311 1 311  0.090198 9.222485 0.958268  0.000000
312 1 312  4.811537 14.722557 11.050914  0.000000
313 1 313  13.371601 7.272334 6.266629  0.000000
314 1 314  8.690100 5.304436 15.098411  0.000000
315 1 315  14.100237 14.897808 14.304706  0.000000
316 1 316  9.988338 12.202363 3.213124  0.000000
317 1 317  3.411259 11.416223 2.513345  0.000000
318 1 318  10.063776 5.198264 11.873745  0.000000
319 1 319  17.241247 18.079872 18.443460  0.000000
320 1 320  2.467742 13.397985 0.234653  0.000000
321 1 321  4.053432 7.518593 10.180824  0.000000
322 1 322  8.187737 0.878322 18.726654  0.000000
323 1 323  2.774703 2.455986 8.563384  0.000000
324 1 324  12.546776 5.167242 1.681026  0.000000
325 1 325  5.282670 2.163881 11.224195  0.000000
326 1 326  0.058498 6.516224 4.911811  0.000000
327 1 327  15.664275 17.048695 1.809067  0.000000
328 1 328  1.689409 11.610664 17.624681  0.000000
329 1 329  7.929398 17.094501 0.029523  0.000000
330 1 330  15.025256 19.365620 14.303032  0.000000
331 1 331  11.333000 16.508125 9.060650  0.000000
332 1 332  16.641945 14.491874 5.717624  0.000000
333 1 333  4.812193 1.027193 2.407823  0.000000
334 1 334  15.356490 6.576899 9.040704  0.000000
335 1 335  11.479434 0.178513 6.264523  0.000000
336 1 336  0.574636 14.618847 7.299258  0.000000
337 1 337  1.849770 16.962730 8.001505  0.000000
338 1 338  15.660514 10.085661 7.053919  0.000000
339 1 339  2.751286 6.532220 6.839737  0.000000
340 1 340  3.658813 2.463963 8.010474  0.000000
341 1 341  9.072387 19.022333 9.048616  0.000000
342 1 342  9.744592 10.211484 18.363031  0.000000
343 1 343  5.635496 17.644781 6.739297  0.000000
344 1 344  8.862652 9.489820 12.153607  0.000000
345 1 345  18.356789 13.721554 6.843139  0.000000
346 1 346  15.510176 5.327542 1.801900  0.000000
347 1 347  14.968765 15.889680 10.260942  0.000000
348 1 348  18.914406 13.625635 19.792414  0.000000
349 1 349  3.847965 19.260475 6.047210  0.000000
350 1 350  15.436817 10.539665 14.851892  0.000000
351 1 351  16.334671 11.184273 3.247671  0.000000
352 1 352  13.611401 17.167147 12.936892  0.000000
353 1 353  17.622374 10.787807 4.145313  0.000000
354 1 354  4.601276 12.511015 2.291615  0.000000
355 1 355  0.153272 6.559687 8.028995  0.000000
356 1 356  2.423001 4.593984 9.608145  0.000000
357 1 357  8.949532 12.473004 9.841601  0.000000
358 1 358  10.705977 18.149435 2.537709  0.000000
359 1 359  11.120476 7.514920 11.642159  0.000000
360 1 360  6.644158 3.773847 10.043363  0.000000
361 1 361  5.785367 12.725699 6.081679  0.000000
362 1 362  15.632675 5.823030 2.418730  0.000000
363 1 363  8.214961 5.111372 15.989652  0.000000
364 1 364  5.304277 16.185202 0.419779  0.000000
365 1 365  0.317298 17.843962 16.241989  0.000000
366 1 366  4.703672 16.185307 0.530088  0.000000
367 1 367  18.005480 17.288984 6.184138  0.000000
368 1 368  8.901396 10.689389 14.407497  0.000000
369 1 369  5.135611 9.806348 13.722359  0.000000
370 1 370  16.406227 8.098989 9.563110  0.000000
371 1 371  11.005640 16.683912 1.009239  0.000000
372 1 372  14.842854 18.384771 19.118458  0.000000
373 1 373  0.796669 9.709098 3.370331  0.000000
374 1 374  13.351452 6.044312 11.949130  0.000000
375 1 375  4.233738 9.689720 9.599391  0.000000
376 1 376  6.340945 10.073789 14.749278  0.000000
377 1 377  16.510002 2.178271 5.100815  0.000000
378 1 378  12.317441 14.969816 11.090770  0.000000
379 1 379  17.993343 13.187459 4.294855  0.000000
380 1 380  8.793616 3.931902 2.708352  0.000000
381 1 381  4.311762 13.900464 11.038261  0.000000
382 1 382  8.327668 9.404655 18.283012  0.000000
383 1 383  6.038296 18.190479 7.163414  0.000000
384 1 384  15.626490 12.057831 11.370568  0.000000
385 1 385  16.713509 1.979161 3.871965  0.000000
386 1 386  2.807946 18.852104 19.539677  0.000000
387 1 387  13.957143 4.511048 0.840887  0.000000
388 1 388  13.336007 4.750332 0.438976  0.000000
389 1 389  14.177853 1.178378 0.617978  0.000000
390 1 390  7.482850 0.242613 19.072336  0.000000
391 1 391  12.350461 16.528063 2.082193  0.000000
392 1 392  16.439152 9.248716 14.868956  0.000000
393 1 393  5.955832 17.851519 1.429150  0.000000
394 1 394  17.213583 8.674012 16.904137  0.000000
395 1 395  17.073036 16.177837 3.999677  0.000000
396 1 396  16.552650 6.940022 3.154721  0.000000
397 1 397  7.374487 18.073624 14.462611  0.000000
398 1 398  2.934814 7.334126 12.439312  0.000000
399 1 399  11.484397 17.788919 5.176129  0.000000
400 1 400  10.256924 4.693483 19.392899  0.000000
401 1 401  10.109119 2.215198 2.143808  0.000000
402 1 402  19.293663 6.714208 0.061826  0.000000
403 1 403  13.267321 1.703439 19.403048  0.000000
404 1 404  17.420269 7.256872 12.450420  0.000000
405 1 405  0.082523 9.458018 2.490867  0.000000
406 1 406  13.712118 12.919501 19.212044  0.000000
407 1 407  3.663562 16.489212 3.434100  0.000000
408 1 408  18.961311 14.573503 1.792189  0.000000
409 1 409  9.374496 10.377213 0.384714  0.000000
410 1 410  16.968542 0.635559 4.220577  0.000000
411 1 411  10.537527 1.014692 3.911971  0.000000
412 1 412  3.488557 5.556572 13.679770  0.000000
413 1 413  5.129567 8.045265 5.972364  0.000000
414 1 414  15.911897 7.123611 18.373188  0.000000
415 1 415  2.604985 14.746233 3.936308  0.000000
416 1 416  4.133849 3.438784 15.785816  0.000000
417 1 417  9.163353 1.140013 2.949200  0.000000
418 1 418  9.215623 4.662330 18.689255  0.000000
419 1 419  6.429298 2.032542 4.048445  0.000000
420 1 420  15.326986 14.993792 12.776305  0.000000
421 1 421  1.718709 1.002857 18.670261  0.000000
422 1 422  1.943393 12.112297 18.052551  0.000000
423 1 423  15.762735 12.848093 0.905367  0.000000
424 1 424  17.816978 2.793593 9.362901  0.000000
425 1 425  1.698499 7.810640 19.078426  0.000000
426 1 426  13.565836 16.423946 19.321941  0.000000
427 1 427  18.421898 19.031269 12.087545  0.000000
428 1 428  9.488143 10.616279 8.233722  0.000000
429 1 429  18.172482 6.069928 17.662689  0.000000
430 1 430  13.074661 9.131754 15.206621  0.000000
431 1 431  9.057755 7.434168 13.082108  0.000000
432 1 432  12.354274 0.970873 6.513883  0.000000
433 1 433  1.630621 6.105865 3.609871  0.000000
434 1 434  1.676041 5.348855 1.829797  0.000000
435 1 435  5.313095 14.620158 5.690970  0.000000
436 1 436  11.051410 17.506771 10.400864  0.000000
437 1 437  11.684868 16.385857 5.219880  0.000000
438 1 438  4.247587 6.973843 0.683881  0.000000
439 1 439  18.107492 18.333420 8.763736  0.000000
440 1 440  9.282835 7.779774 4.990149  0.000000
441 1 441  16.002176 17.263573 8.598797  0.000000
442 1 442  10.608094 11.128480 0.145802  0.000000
443 1 443  3.862520 10.936522 4.507502  0.000000
444 1 444  17.845062 16.378796 17.800402  0.000000
445 1 445  0.392070 10.807714 14.509351  0.000000
446 1 446  4.824125 8.116654 8.370221  0.000000
447 1 447  7.713584 3.645271 6.754508  0.000000
448 1 448  0.888167 4.605745 1.476517  0.000000
449 1 449  10.766086 18.406532 15.482867  0.000000
450 1 450  4.204552 18.457443 11.315006  0.000000
451 1 451  14.511971 8.159768 3.946562  0.000000
452 1 452  5.134959 8.913265 5.542453  0.000000
453 1 453  4.126740 9.039494 3.003320  0.000000
454 1 454  8.310308 10.569731 15.487514  0.000000
455 1 455  12.172943 16.187449 4.481575  0.000000
456 1 456  15.939315 1.244625 8.402699  0.000000
457 1 457  19.615904 8.841055 10.493191  0.000000
458 1 458  1.647502 13.973270 18.725552  0.000000
459 1 459  1.018225 8.941175 17.662407  0.000000
460 1 460  1.246808 1.338060 17.888018  0.000000
461 1 461  1.828876 0.688750 18.375391  0.000000
462 1 462  15.301508 2.675072 16.773170  0.000000
463 1 463  7.307176 12.013245 15.127613  0.000000
464 1 464  9.576206 10.685660 18.512735  0.000000
465 1 465  5.142002 6.836160 9.434667  0.000000
466 1 466  4.948579 12.835736 17.980904  0.000000
467 1 467  13.739066 18.938578 1.960939  0.000000
468 1 468  19.621483 4.899354 13.054292  0.000000
469 1 469  5.091550 11.996754 8.233892  0.000000
470 1 470  18.092491 2.873140 7.129759  0.000000
471 1 471  1.999127 13.860154 3.645573  0.000000
472 1 472  17.755804 3.434025 16.883202  0.000000
473 1 473  9.631610 8.643667 4.618044  0.000000
474 1 474  15.911233 14.730844 14.722038  0.000000
475 1 475  2.295555 2.630784 0.131794  0.000000
476 1 476  17.981730 7.801094 9.956051  0.000000
477 1 477  15.153537 16.081797 2.483213  0.000000
478 1 478  1.432582 16.151102 13.147139  0.000000
479 1 479  8.857366 11.505996 7.939921  0.000000
480 1 480  5.915527 3.566464 12.136868  0.000000
481 1 481  18.626717 3.654868 1.670041  0.000000
482 1 482  18.846472 9.354847 7.819496  0.000000
483 1 483  10.376699 14.302161 8.236689  0.000000
484 1 484  5.760000 3.495490 2.942002  0.000000
485 1 485  17.662432 15.400243 9.672089  0.000000
486 1 486  12.768440 2.138942 4.038479  0.000000
487 1 487  7.679838 0.392783 2.805523  0.000000
488 1 488  6.892072 17.986692 12.531584  0.000000
489 1 489  16.683577 14.760187 1.621437  0.000000
490 1 490  7.708864 14.049574 2.532591  0.000000
491 1 491  19.332188 11.421104 17.348616  0.000000
492 1 492  2.896674 12.702394 12.107786  0.000000
493 1 493  4.293571 14.615420 3.270229  0.000000
494 1 494  10.439775 1.271589 0.856794  0.000000
495 1 495  9.185002 11.475389 3.322223  0.000000
496 1 496  16.885675 5.190992 11.453987  0.000000
497 1 497  8.813537 5.061727 13.377879  0.000000
498 1 498  3.479659 4.700229 11.645788  0.000000
499 1 499  8.641504 18.695389 17.600569  0.000000
500 1 500  9.289740 2.346776 0.222751  0.000000
501 1 501  9.733462 11.410437 6.816368  0.000000
502 1 502  2.280330 12.042432 1.089435  0.000000
503 1 503  3.989275 4.471229 19.777893  0.000000
504 1 504  10.193314 12.694674 15.207353  0.000000
505 1 505  13.454495 7.561295 13.851830  0.000000
506 1 506  11.645969 12.351150 7.582855  0.000000
507 1 507  17.316914 3.579410 17.923969  0.000000
508 1 508  12.098759 17.407999 2.732175  0.000000
509 1 509  2.126784 5.478819 5.814520  0.000000
510 1 510  10.184963 2.612311 8.122804  0.000000
511 1 511  9.389702 9.632771 10.264552  0.000000
512 1 512  18.448393 15.590660 19.496159  0.000000
513 1 513  18.257814 16.655590 14.789233  0.000000
514 1 514  0.234025 16.167715 18.039200  0.000000
515 1 515  15.356514 1.475933 4.949986  0.000000
516 1 516  12.525488 10.642449 3.031276  0.000000
517 1 517  1.559890 16.338520 13.573967  0.000000
518 1 518  17.014622 12.562251 0.280561  0.000000
519 1 519  10.475161 9.348293 6.286042  0.000000
520 1 520  18.721230 5.506529 2.937909  0.000000
521 1 521  1.962401 9.930219 15.961833  0.000000
522 1 522  7.242439 12.878234 9.929339  0.000000
523 1 523  1.406790 14.705948 17.926359  0.000000
524 1 524  2.620980 3.703675 2.261475  0.000000
525 1 525  13.698479 16.747717 9.148267  0.000000
526 1 526  2.121998 16.036818 17.443876  0.000000
527 1 527  18.205807 13.193674 10.654329  0.000000
528 1 528  19.880968 10.736882 4.921807  0.000000
529 1 529  18.396172 14.474586 19.315001  0.000000
530 1 530  1.797063 14.106209 16.823298  0.000000
531 1 531  4.949811 3.643170 8.463389  0.000000
532 1 532  0.341162 4.416103 2.255348  0.000000
533 1 533  13.571109 11.402244 15.223174  0.000000
534 1 534  5.862641 14.773907 5.464367  0.000000
535 1 535  7.484482 12.880192 1.623911  0.000000
536 1 536  11.446772 5.053631 15.387103  0.000000
537 1 537  4.732323 11.456308 19.031334  0.000000
538 1 538  18.947226 16.798485 7.986240  0.000000
539 1 539  13.460988 0.292889 8.442800  0.000000
540 1 540  11.109769 3.069556 8.050829  0.000000
541 1 541  1.533743 19.272627 4.829368  0.000000
542 1 542  12.459391 18.857410 1.738935  0.000000
543 1 543  16.742739 18.070841 12.896764  0.000000
544 1 544  18.421043 10.173037 13.891163  0.000000
545 1 545  13.072968 15.991568 13.815683  0.000000
546 1 546  5.798810 11.017505 9.562986  0.000000
547 1 547  7.459257 10.241207 16.875986  0.000000
548 1 548  1.042849 3.372641 4.209098  0.000000
549 1 549  7.057915 16.570730 4.277440  0.000000
550 1 550  3.061603 11.811615 1.688004  0.000000
551 1 551  9.652126 17.409277 7.964063  0.000000
552 1 552  10.187126 4.689970 11.911355  0.000000
553 1 553  0.800863 2.377495 8.138775  0.000000
554 1 554  13.986029 0.493544 4.540154  0.000000
555 1 555  17.225969 9.480305 7.945734  0.000000
556 1 556  7.331486 15.552215 14.976830  0.000000
557 1 557  11.034652 8.396906 8.283352  0.000000
558 1 558  19.176262 0.479539 12.042934  0.000000
559 1 559  10.213980 11.891141 18.556616  0.000000
560 1 560  17.861834 0.843931 1.527437  0.000000
561 1 561  8.450541 6.611960 4.405169  0.000000
562 1 562  13.631244 3.777025 9.491426  0.000000
563 1 563  6.419892 6.146132 19.349203  0.000000
564 1 564  7.411059 6.965631 3.311964  0.000000
565 1 565  16.963064 1.764805 6.817223  0.000000
566 1 566  13.068746 18.922503 2.415963  0.000000
567 1 567  2.099272 18.408638 16.414112  0.000000
568 1 568  11.932369 14.025678 18.508942  0.000000
569 1 569  11.065714 16.247421 13.823201  0.000000
570 1 570  13.620214 9.173714 11.801652  0.000000
571 1 571  15.205679 3.547342 14.426313  0.000000
572 1 572  6.296579 9.835869 2.188039  0.000000
573 1 573  5.136664 1.644120 10.431340  0.000000
574 1 574  9.378632 19.631529 16.464800  0.000000
575 1 575  11.914795 7.971189 1.059448  0.000000
576 1 576  7.006610 16.809242 10.353007  0.000000
577 1 577  0.268872 7.124589 2.597888  0.000000
578 1 578  5.078333 8.447509 1.895458  0.000000
579 1 579  4.530777 2.250141 11.525308  0.000000
580 1 580  4.763440 13.312140 0.808321  0.000000
581 1 581  8.665380 8.033516 19.977655  0.000000
582 1 582  16.069407 4.753294 10.303841  0.000000
583 1 583  12.015361 7.168796 13.446334  0.000000
584 1 584  6.941399 16.566587 0.080460  0.000000
585 1 585  10.245877 11.697367 8.853693  0.000000
586 1 586  3.115345 11.304975 16.363565  0.000000
587 1 587  2.706462 14.475381 8.162362  0.000000
588 1 588  14.965194 12.222888 11.736021  0.000000
589 1 589  7.079905 14.236456 11.320022  0.000000
590 1 590  10.815372 12.752954 7.443248  0.000000
591 1 591  2.248739 2.581042 14.275881  0.000000
592 1 592  16.399448 16.791471 16.904667  0.000000
593 1 593  18.622395 5.368955 2.096919  0.000000
594 1 594  19.266073 2.746343 7.410216  0.000000
595 1 595  4.378749 11.763288 13.002742  0.000000
596 1 596  5.708974 14.690131 2.840207  0.000000
597 1 597  13.230819 2.937890 10.866352  0.000000
598 1 598  5.696161 2.936302 7.265005  0.000000
599 1 599  11.553864 10.725924 9.705619  0.000000
600 1 600  9.636907 11.384870 1.621569  0.000000
601 1 601  16.388182 3.186908 7.788477  0.000000
602 1 602  0.040753 17.830206 15.939402  0.000000
603 1 603  11.431425 4.288224 12.677867  0.000000
604 1 604  14.873437 6.993416 10.605531  0.000000
605 1 605  4.712220 0.550402 12.587361  0.000000
606 1 606  3.107611 2.190917 19.949406  0.000000
607 1 607  4.946703 15.945187 3.014944  0.000000