ITEM: TIMESTEP
0
ITEM: NUMBER OF ATOMS
2100
ITEM: BOX BOUNDS pp pp pp
0.000000 10.000000
0.000000 10.000000
0.000000 10.000000
ITEM: ATOMS id type mol x y z q
1 1 1  4.292007 7.955986 6.898405  0.000000
2 1 2  6.109380 1.922837 6.597563  0.000000
3 1 3  8.523808 9.011070 7.774816  0.000000
4 1 4  2.814655 1.316659 3.228592  0.000000
5 1 5  5.287916 8.051202 7.424979  0.000000
6 1 6  9.892858 5.871410 3.453579  0.000000
7 1 7  3.868912 7.587261 1.704205  0.000000
8 1 8  2.724611 7.560120 1.033667  0.000000
9 1 9  2.110305 5.195312 2.846996  0.000000
10 1 10  7.973290 9.289812 4.499596  0.000000
11 1 11  4.313691 0.512870 2.642078  0.000000
12 1 12  1.590171 0.617841 6.515480  0.000000
13 1 13  3.611080 8.417185 5.408205  0.000000
14 1 14  9.274921 9.784107 0.060850  0.000000
15 1 15  8.373253 2.624341 5.816920  0.000000
16 1 16  6.269492 0.897903 1.586562  0.000000
17 1 17  4.644676 0.033925 7.208857  0.000000
18 1 18  1.645906 0.287528 4.554576  0.000000
19 1 19  3.627695 6.408268 7.311963  0.000000
20 1 20  5.291309 7.560249 5.160168  0.000000
21 1 21  0.130233 5.138744 9.269149  0.000000
22 1 22  9.267232 5.125470 8.039110  0.000000
23 1 23  4.727459 0.229943 5.970565  0.000000
24 1 24  2.188353 8.871967 9.992477  0.000000
25 1 25  2.599410 6.541400 0.611504  0.000000
26 1 26  1.857635 4.148248 3.769720  0.000000
27 1 27  0.827094 9.133612 2.038527  0.000000
28 1 28  3.047941 8.494949 5.732544  0.000000
29 1 29  3.153445 3.282227 7.438435  0.000000
30 1 30  7.663201 3.309017 7.382246  0.000000
31 1 31  9.179790 7.084403 5.338021  0.000000
32 1 32  2.380415 0.092039 7.765484  0.000000
33 1 33  8.057705 4.306443 2.038539  0.000000
34 1 34  1.951783 3.463560 5.217628  0.000000
35 1 35  6.132028 6.467943 0.859442  0.000000
36 1 36  6.650064 7.182393 2.310236  0.000000
37 1 37  3.290118 1.837851 5.374088  0.000000
38 1 38  4.283962 8.153593 9.646276  0.000000
39 1 39  9.452289 8.888048 0.067092  0.000000
40 1 40  9.146094 8.257151 3.932269  0.000000
41 1 41  2.305363 4.388880 1.225123  0.000000
42 1 42  7.066420 4.912061 2.099593  0.000000
43 1 43  5.258923 1.266750 0.596807  0.000000
44 1 44  7.449880 2.286919 4.304696  0.000000
45 1 45  0.547647 5.533271 5.760178  0.000000
46 1 46  5.617314 5.160545 5.085184  0.000000
47 1 47  6.066412 2.317155 7.991019  0.000000
48 1 48  3.615784 0.680557 1.071136  0.000000
49 1 49  1.185755 7.868858 6.874809  0.000000
50 1 50  0.237361 4.834365 6.503007  0.000000
51 1 51  2.215441 6.444584 8.894499  0.000000
52 1 52  9.015591 7.756971 4.265644  0.000000
53 1 53  1.514741 2.286978 5.689590  0.000000
54 1 54  2.552235 6.363789 4.634387  0.000000
55 1 55  2.277065 4.696594 6.014460  0.000000
56 1 56  0.830569 7.696063 4.843247  0.000000
57 1 57  2.741235 1.027688 7.711210  0.000000
58 1 58  9.740773 0.126332 3.901958  0.000000
59 1 59  6.954376 3.108853 3.569659  0.000000
60 1 60  6.374285 9.632121 6.909319  0.000000
61 1 61  5.261584 0.301582 9.401132  0.000000
62 1 62  0.470124 8.330868 1.296203  0.000000
63 1 63  5.707348 7.666876 4.622170  0.000000
64 1 64  4.524826 9.400476 1.811177  0.000000
65 1 65  1.650331 7.627148 0.243514  0.000000
66 1 66  6.513733 6.267125 1.244116  0.000000
67 1 67  0.287886 6.351273 4.235099  0.000000
68 1 68  9.058356 3.745167 6.936300  0.000000
69 1 69  0.927144 2.770397 3.218488  0.000000
70 1 70  0.929276 0.407952 4.607558  0.000000
71 1 71  7.144031 9.685381 7.281022  0.000000
72 1 72  2.741538 7.051546 8.134804  0.000000
73 1 73  5.210071 0.573212 5.441030  0.000000
74 1 74  7.793434 4.225136 8.768823  0.000000
75 1 75  7.807559 0.390294 0.650281  0.000000
76 1 76  1.218933 5.942505 6.020621  0.000000
77 1 77  4.328168 8.547032 5.195851  0.000000
78 1 78  2.258001 4.043114 7.205297  0.000000
79 1 79  3.329544 9.474215 5.488262  0.000000
80 1 80  0.830983 7.299491 8.313160  0.000000
81 1 81  1.203035 8.367259 9.141497  0.000000
82 1 82  1.576530 0.059631 6.703639  0.000000
83 1 83  0.109161 1.818185 2.273805  0.000000
84 1 84  3.009903 0.885504 6.180714  0.000000
85 1 85  1.707140 0.591637 0.597661  0.000000
86 1 86  7.781557 0.713863 5.375946  0.000000
87 1 87  2.746157 7.149972 6.628061  0.000000
88 1 88  4.407554 0.536789 7.897263  0.000000
89 1 89  9.763095 1.977629 0.585835  0.000000
90 1 90  4.133709 2.760758 1.735507  0.000000
91 1 91  3.496911 5.710825 1.087404  0.000000
92 1 92  9.295766 8.210365 2.155242  0.000000
93 1 93  2.692892 5.937951 5.022189  0.000000
94 1 94  3.633747 2.779270 7.054159  0.000000
95 1 95  3.809653 5.686715 6.523364  0.000000
96 1 96  2.430745 2.863677 4.790509  0.000000
97 1 97  1.184317 9.347244 3.161862  0.000000
98 1 98  8.376021 2.325636 4.952748  0.000000
99 1 99  4.835565 6.207069 3.671454  0.000000
100 1 100  4.337729 2.887944 0.642504  0.000000
101 1 101  6.341661 4.649611 9.601621  0.000000
102 1 102  3.785675 5.653536 8.347271  0.000000
103 1 103  2.862106 8.636184 4.355025  0.000000
104 1 104  7.439245 3.437050 2.575680  0.000000
105 1 105  4.623766 6.882815 5.803451  0.000000
106 1 106  0.760780 9.038857 5.173201  0.000000
107 1 107  6.940774 9.276008 2.517023  0.000000
108 1 108  9.726156 8.665868 4.404301  0.000000
109 1 109  8.757215 5.003788 6.986369  0.000000
110 1 110  7.653325 7.920484 6.563930  0.000000
111 1 111  5.771857 5.348258 5.159678  0.000000
112 1 112  5.418593 7.170138 4.151740  0.000000
113 1 113  5.249821 3.261979 9.210752  0.000000
114 1 114  0.046385 1.948233 2.684268  0.000000
115 1 115  8.257761 2.018261 0.916810  0.000000
116 1 116  3.408874 0.290143 9.560368  0.000000
117 1 117  8.926462 1.472172 0.646829  0.000000
118 1 118  7.990768 4.042939 9.696277  0.000000
119 1 119  0.441517 3.401286 3.153622  0.000000
120 1 120  8.441061 5.619827 3.348413  0.000000
121 1 121  2.326157 0.640868 6.155560  0.000000
122 1 122  3.197062 0.873248 6.644057  0.000000
123 1 123  8.497787 7.212406 4.342754  0.000000
124 1 124  4.392206 8.759532 8.591737  0.000000
125 1 125  9.113842 8.141764 1.058607  0.000000
126 1 126  4.857681 9.537497 8.587574  0.000000
127 1 127  3.916166 5.759183 5.129085  0.000000
128 1 128  4.571290 7.754001 2.430522  0.000000
129 1 129  5.749271 1.438225 6.346302  0.000000
130 1 130  2.877017 4.011421 2.902880  0.000000
131 1 131  0.095133 6.112440 3.162789  0.000000
132 1 132  3.751348 5.689888 2.085480  0.000000
133 1 133  7.142864 9.350120 5.145038  0.000000
134 1 134  9.609815 7.991188 9.133718  0.000000
135 1 135  3.537184 0.674577 8.213148  0.000000
136 1 136  3.941714 8.310263 9.679602  0.000000
137 1 137  5.989200 7.044944 9.974391  0.000000
138 1 138  1.183356 0.321200 9.422700  0.000000
139 1 139  6.219100 6.053555 8.804890  0.000000
140 1 140  1.903026 7.934442 5.628014  0.000000
141 1 141  5.623518 5.262405 9.027349  0.000000
142 1 142  8.798246 5.272985 8.309638  0.000000
143 1 143  6.487817 1.528462 6.739699  0.000000
144 1 144  7.693439 8.794421 7.718924  0.000000
145 1 145  0.044277 7.446530 7.136575  0.000000
146 1 146  3.305514 7.747611 1.707010  0.000000
147 1 147  2.383549 6.106908 6.860257  0.000000
148 1 148  3.558702 8.517340 9.602335  0.000000
149 1 149  7.644525 3.847586 4.012812  0.000000
150 1 150  0.505334 3.481679 2.897288  0.000000
151 1 151  4.341272 1.473385 1.855438  0.000000
152 1 152  3.885269 0.417212 2.901934  0.000000
153 1 153  2.853181 0.166009 9.610014  0.000000
154 1 154  6.190820 8.018097 6.937201  0.000000
155 1 155  4.472468 5.487061 0.435865  0.000000
156 1 156  1.902377 3.867205 8.839843  0.000000
157 1 157  3.417830 6.807758 4.208477  0.000000
158 1 158  0.091379 2.714194 2.467074  0.000000
159 1 159  3.298054 9.154934 8.238114  0.000000
160 1 160  4.737124 6.519885 9.493360  0.000000
161 1 161  8.125793 7.149737 4.970008  0.000000
162 1 162  3.204971 8.684660 1.984512  0.000000
163 1 163  0.491470 7.330006 3.085354  0.000000
164 1 164  6.551033 1.001700 3.238715  0.000000
165 1 165  7.423969 0.926807 6.377169  0.000000
166 1 166  7.856509 5.005031 1.301949  0.000000
167 1 167  6.445880 8.482288 6.648651  0.000000
168 1 168  2.006361 4.444023 7.434946  0.000000
169 1 169  4.444628 8.881771 2.321772  0.000000
170 1 170  3.084131 5.942636 7.717391  0.000000
171 1 171  2.051624 0.823937 5.156501  0.000000
172 1 172  4.526858 4.025356 7.200686  0.000000
173 1 173  3.529640 0.661254 3.887583  0.000000
174 1 174  7.175337 7.228249 1.852148  0.000000
175 1 175  6.138017 9.220265 0.825852  0.000000
176 1 176  8.779362 3.959004 7.720351  0.000000
177 1 177  8.284385 0.726091 6.648602  0.000000
178 1 178  5.208049 6.947696 1.029563  0.000000
179 1 179  9.740948 2.222495 2.361023  0.000000
180 1 180  1.025042 8.622047 6.853312  0.000000
181 1 181  8.563037 2.894222 3.607793  0.000000
182 1 182  9.839394 1.084811 9.936868  0.000000
183 1 183  8.898403 4.513632 4.957357  0.000000
184 1 184  6.886699 1.614328 0.320174  0.000000
185 1 185  0.680507 2.049673 0.896207  0.000000
186 1 186  8.174413 7.348121 4.684127  0.000000
187 1 187  1.047140 9.569694 7.551028  0.000000
188 1 188  9.605895 6.490072 1.409216  0.000000
189 1 189  8.703754 8.129139 5.704667  0.000000
190 1 190  6.666960 9.696537 4.748978  0.000000
191 1 191  9.717068 2.618088 9.140059  0.000000
192 1 192  9.932315 2.729769 7.197619  0.000000
193 1 193  3.670705 9.798780 3.481064  0.000000
194 1 194  8.245437 4.935492 7.753688  0.000000
195 1 195  1.535288 6.936020 2.957182  0.000000
196 1 196  7.131015 5.859398 3.234415  0.000000
197 1 197  7.062601 8.726151 4.234848  0.000000
198 1 198  7.954495 1.158848 0.886514  0.000000
199 1 199  4.753837 7.001890 1.485720  0.000000
200 1 200  9.934598 8.275620 8.177917  0.000000
201 1 201  8.355120 3.282338 3.852688  0.000000
202 1 202  1.450057 6.576171 9.101920  0.000000
203 1 203  9.747720 1.635204 5.036039  0.000000
204 1 204  5.938764 0.111231 7.647785  0.000000
205 1 205  4.649604 3.600825 8.781054  0.000000
206 1 206  7.947513 0.677501 8.473371  0.000000
207 1 207  1.727012 6.537448 5.838655  0.000000
208 1 208  8.561252 0.929894 8.311727  0.000000
209 1 209  7.539325 5.845272 9.478363  0.000000
210 1 210  5.687017 7.625475 2.016475  0.000000
211 1 211  7.487015 2.229621 4.711339  0.000000
212 1 212  8.351723 1.713628 8.301566  0.000000
213 1 213  1.757853 7.447622 2.337816  0.000000
214 1 214  2.110547 4.116514 5.170116  0.000000
215 1 215  9.101402 9.652184 8.605776  0.000000
216 1 216  7.245128 3.202079 3.747007  0.000000
217 1 217  4.874759 3.934135 1.502253  0.000000
218 1 218  5.274875 9.990220 7.126098  0.000000
219 1 219  2.725830 0.080633 2.488956  0.000000
220 1 220  8.738610 1.086675 2.643974  0.000000
221 1 221  5.356823 4.519224 6.570844  0.000000
222 1 222  3.184932 1.067232 0.352969  0.000000
223 1 223  7.293032 4.144960 1.281844  0.000000
224 1 224  5.421659 2.514780 9.910565  0.000000
225 1 225  1.313033 7.710649 2.910146  0.000000
226 1 226  5.498721 0.452900 4.136463  0.000000
227 1 227  1.010195 6.865974 1.568180  0.000000
228 1 228  1.753809 9.538815 3.663033  0.000000
229 1 229  1.323036 7.742685 0.862031  0.000000
230 1 230  0.681615 1.870658 2.391159  0.000000
231 1 231  5.685862 6.065466 2.505000  0.000000
232 1 232  0.262800 3.915988 4.761436  0.000000
233 1 233  7.243758 1.274889 6.692803  0.000000
234 1 234  8.966130 5.729271 7.588106  0.000000
235 1 235  8.653303 9.889549 3.945279  0.000000
236 1 236  7.419727 1.820471 9.367964  0.000000
237 1 237  2.385777 7.763669 8.418740  0.000000
238 1 238  6.599573 5.077559 6.831924  0.000000
239 1 239  4.419900 7.249730 4.925498  0.000000
240 1 240  0.992414 1.461426 2.079612  0.000000
241 1 241  9.005886 6.207632 1.737143  0.000000
242 1 242  0.075170 0.105612 2.424376  0.000000
243 1 243  1.358931 0.229932 5.541862  0.000000
244 1 244  3.817692 1.498079 4.124010  0.000000
245 1 245  1.446205 8.058800 9.007075  0.000000
246 1 246  9.443117 7.012152 6.852387  0.000000
247 1 247  4.076523 2.343390 4.550340  0.000000
248 1 248  7.840385 8.623672 3.318496  0.000000
249 1 249  7.508476 7.160131 0.979139  0.000000
250 1 250  1.471193 0.176594 9.952163  0.000000
251 1 251  0.506324 2.169577 2.862919  0.000000
252 1 252  5.187292 4.670851 0.814656  0.000000
253 1 253  9.631435 2.061969 1.454415  0.000000
254 1 254  7.282443 8.637276 1.543473  0.000000
255 1 255  8.642007 8.990705 4.532966  0.000000
256 1 256  9.134137 2.760942 9.144220  0.000000
257 1 257  6.096597 6.104550 0.451110  0.000000
258 1 258  1.044730 3.272201 8.996971  0.000000
259 1 259  9.107352 3.419669 7.680401  0.000000
260 1 260  4.571834 6.340888 8.938848  0.000000
261 1 261  8.676206 8.097661 0.900677  0.000000
262 1 262  5.592501 5.032416 6.160483  0.000000
263 1 263  6.275524 6.073827 6.590295  0.000000
264 1 264  7.328933 8.618124 8.273749  0.000000
265 1 265  0.602846 2.451164 3.510153  0.000000
266 1 266  9.808898 4.559226 9.182827  0.000000
267 1 267  8.479081 1.147060 5.068675  0.000000
268 1 268  9.186619 0.226029 3.015458  0.000000
269 1 269  4.590182 7.542553 2.277739  0.000000
270 1 270  7.407040 4.508827 2.337396  0.000000
271 1 271  1.558982 7.829128 5.620187  0.000000
272 1 272  2.374488 6.743324 3.803481  0.000000
273 1 273  3.668178 0.139735 2.405465  0.000000
274 1 274  9.419147 4.535345 0.177437  0.000000
275 1 275  0.815636 3.142281 5.052387  0.000000
276 1 276  1.419024 3.965655 9.765368  0.000000
277 1 277  4.099877 9.058450 8.688910  0.000000
278 1 278  2.564100 0.956267 8.671445  0.000000
279 1 279  1.247506 5.101603 8.663007  0.000000
280 1 280  8.524677 2.333717 2.875940  0.000000
281 1 281  6.163638 0.083309 2.888442  0.000000
282 1 282  5.477000 2.264096 1.047378  0.000000
283 1 283  9.397452 1.569049 7.266519  0.000000
284 1 284  8.858327 2.454185 6.637225  0.000000
285 1 285  7.731621 5.554587 6.796254  0.000000
286 1 286  3.544858 1.238597 7.513730  0.000000
287 1 287  1.264122 4.950687 4.119005  0.000000
288 1 288  4.323361 2.658670 2.094364  0.000000
289 1 289  9.387977 2.369191 2.558366  0.000000
290 1 290  0.701307 0.918958 5.899488  0.000000
291 1 291  6.280885 1.374018 4.235952  0.000000
292 1 292  4.530939 7.758593 5.950008  0.000000
293 1 293  1.448486 4.766787 8.257438  0.000000
294 1 294  8.849634 2.401963 0.399924  0.000000
295 1 295  7.501694 3.691511 2.542486  0.000000
296 1 296  4.270565 6.058200 1.107143  0.000000
297 1 297  3.801018 1.611101 0.347748  0.000000
298 1 298  0.934496 5.986274 1.901729  0.000000
299 1 299  4.340203 5.480386 3.681407  0.000000
300 1 300  3.388828 5.454649 0.036792  0.000000
301 1 301  6.834977 4.101208 0.407489  0.000000
302 1 302  2.529537 4.372974 9.126614  0.000000
303 1 303  9.131334 2.032295 1.334651  0.000000
304 1 304  2.900525 2.844942 2.379534  0.000000
305 1 305  5.453816 8.550792 0.282039  0.000000
306 1 306  7.589368 3.589994 5.672723  0.000000
307 1 307  5.484714 2.720803 7.725382  0.000000
308 1 308  5.306810 1.587675 0.183710  0.000000
309 1 309  1.855846 4.441724 9.338043  0.000000
310 1 310  2.377622 4.358202 9.288722  0.000000
311 1 311  5.075752 5.703195 5.854456  0.000000
312 1 312  9.034173 6.030010 1.646293  0.000000
313 1 313  6.885562 5.679289 1.396518  0.000000
314 1 314  4.755003 3.983780 9.839934  0.000000
315 1 315  5.567748 9.851296 3.126709  0.000000
316 1 316  3.509848 3.761478 6.198078  0.000000
317 1 317  5.528100 2.533298 3.446325  0.000000
318 1 318  1.851364 9.006885 9.316271  0.000000
319 1 319  1.904639 9.211452 4.671695  0.000000
320 1 320  4.983754 1.322550 5.609000  0.000000
321 1 321  5.937006 6.649734 7.891706  0.000000
322 1 322  6.361730 4.924248 1.723424  0.000000
323 1 323  2.369732 9.616757 2.493331  0.000000
324 1 324  2.199199 1.963101 8.389404  0.000000
325 1 325  6.088980 7.637497 0.309275  0.000000
326 1 326  5.944567 2.751183 6.471707  0.000000
327 1 327  9.004292 9.055709 9.634155  0.000000
328 1 328  5.653344 9.894837 0.614598  0.000000
329 1 329  3.399730 0.935847 0.886477  0.000000
330 1 330  1.750864 9.792395 8.335499  0.000000
331 1 331  5.204389 0.943813 0.400882  0.000000
332 1 332  4.718913 9.338863 6.899020  0.000000
333 1 333  5.305665 4.441584 7.818762  0.000000
334 1 334  3.269710 8.401594 6.921009  0.000000
335 1 335  4.798148 1.822376 8.681808  0.000000
336 1 336  6.555909 0.659321 4.391716  0.000000
337 1 337  4.734856 5.872321 9.117456  0.000000
338 1 338  2.080460 6.015415 7.730957  0.000000
339 1 339  9.988997 8.618095 2.536873  0.000000
340 1 340  3.370984 6.133162 5.236772  0.000000
341 1 341  4.282608 5.603318 3.323523  0.000000
342 1 342  2.813275 2.577369 2.735278  0.000000
343 1 343  9.954598 0.914689 7.530284  0.000000
344 1 344  6.431302 0.600718 6.305413  0.000000
345 1 345  9.848347 7.240956 7.705971  0.000000
346 1 346  4.121021 7.974403 1.663803  0.000000
347 1 347  8.954014 6.320354 5.212399  0.000000
348 1 348  9.762271 7.414192 2.010428  0.000000
349 1 349  2.438490 8.009816 8.600357  0.000000
350 1 350  7.581436 9.954401 6.552371  0.000000
351 1 351  5.320480 5.284319 1.355796  0.000000
352 1 352  1.536945 2.958567 1.334859  0.000000
353 1 353  8.166593 6.325188 6.848593  0.000000
354 1 354  1.742380 1.608633 6.774978  0.000000
355 1 355  3.540945 7.976369 9.876369  0.000000
356 1 356  4.375184 2.592602 3.772418  0.000000
357 1 357  0.964180 2.015748 3.242353  0.000000
358 1 358  9.148965 2.929225 2.765985  0.000000
359 1 359  0.546581 8.647037 8.551624  0.000000
360 1 360  2.201796 9.056343 2.661323  0.000000
361 1 361  0.501107 7.158151 8.322621  0.000000
362 1 362  0.505874 1.501079 6.519243  0.000000
363 1 363  9.390493 2.494433 3.587313  0.000000
364 1 364  7.461957 4.445374 5.498087  0.000000
365 1 365  0.137627 3.089634 8.459338  0.000000
366 1 366  1.672948 0.027815 4.212425  0.000000
367 1 367  8.541036 4.499160 2.264927  0.000000
368 1 368  2.043402 8.535782 0.479929  0.000000
369 1 369  3.200408 4.772606 3.911492  0.000000
370 1 370  0.320655 6.124681 3.859729  0.000000
371 1 371  9.926742 8.954016 3.435094  0.000000
372 1 372  3.670061 1.171353 3.793365  0.000000
373 1 373  2.450163 4.929275 3.061261  0.000000
374 1 374  1.063599 4.277561 6.026450  0.000000
375 1 375  0.761691 9.292521 5.617374  0.000000
376 1 376  9.286887 8.897678 7.207407  0.000000
377 1 377  2.083096 3.088911 3.229188  0.000000
378 1 378  0.141877 6.847386 8.577788  0.000000
379 1 379  3.537932 5.618452 3.612309  0.000000
380 1 380  4.327351 3.335083 5.680085  0.000000
381 1 381  0.607550 2.032495 7.446808  0.000000
382 1 382  4.237502 6.664735 3.610527  0.000000
383 1 383  0.290633 3.791223 8.621008  0.000000
384 1 384  7.647809 7.562303 0.323772  0.000000
385 1 385  4.426291 5.975879 5.656252  0.000000
386 1 386  2.231625 0.745196 6.954607  0.000000
387 1 387  1.100464 5.685744 6.820664  0.000000
388 1 388  4.527811 5.619722 1.505114  0.000000
389 1 389  6.785911 5.812510 4.899595  0.000000
390 1 390  3.657799 4.216314 1.943870  0.000000
391 1 391  6.846588 6.827080 4.937557  0.000000
392 1 392  5.691595 0.160103 5.493526  0.000000
393 1 393  8.344748 0.036558 9.063053  0.000000
394 1 394  7.841093 6.253662 0.167636  0.000000
395 1 395  9.495859 6.307619 8.992788  0.000000
396 1 396  5.374847 0.581713 5.886300  0.000000
397 1 397  8.612547 8.002937 7.570090  0.000000
398 1 398  9.270324 8.052361 4.020986  0.000000
399 1 399  1.444076 2.635623 6.005532  0.000000
400 1 400  0.138756 1.094380 0.548640  0.000000
401 1 401  0.735269 3.321567 8.353965  0.000000
402 1 402  6.340836 6.243915 1.162150  0.000000
403 1 403  0.806846 4.785055 3.567787  0.000000
404 1 404  0.873294 8.135822 0.591795  0.000000
405 1 405  5.649172 0.375940 6.733123  0.000000
406 1 406  2.841979 0.211994 5.486004  0.000000
407 1 407  7.259797 1.859217 2.638484  0.000000
408 1 408  0.732507 6.972549 3.373839  0.000000
409 1 409  5.948020 3.765999 2.234131  0.000000
410 1 410  3.725454 9.529356 1.729516  0.000000
411 1 411  5.346183 0.848159 0.769342  0.000000
412 1 412  6.853179 8.598148 1.921995  0.000000
413 1 413  4.694288 2.391958 9.410564  0.000000
414 1 414  3.415400 4.897224 2.832532  0.000000
415 1 415  7.990094 9.553376 6.997329  0.000000
416 1 416  3.309008 5.564742 1.970899  0.000000
417 1 417  1.490727 7.898363 3.231927  0.000000
418 1 418  8.974557 5.702294 2.640174  0.000000
419 1 419  1.811994 1.977091 3.050710  0.000000
420 1 420  6.150011 2.270208 5.927515  0.000000
421 1 421  3.654499 8.517164 4.452660  0.000000
422 1 422  9.668713 1.044512 7.396184  0.000000
423 1 423  4.559407 7.681217 4.101350  0.000000
424 1 424  8.707187 7.123716 2.458671  0.000000
425 1 425  8.985193 1.412309 5.628964  0.000000
426 1 426  9.589741 0.344628 5.098798  0.000000
427 1 427  3.893761 9.837230 3.462875  0.000000
428 1 428  0.354524 0.951479 9.092118  0.000000
429 1 429  4.223947 5.983816 0.236806  0.000000
430 1 430  8.555513 6.815784 7.619271  0.000000
431 1 431  3.353586 4.008493 5.161522  0.000000
432 1 432  6.685707 8.627158 6.431999  0.000000
433 1 433  7.451997 0.708958 8.525143  0.000000
434 1 434  4.606767 4.898918 4.439134  0.000000
435 1 435  4.087637 4.349572 9.686991  0.000000
436 1 436  8.046040 1.958603 3.303946  0.000000
437 1 437  1.404550 4.325264 7.658187  0.000000
438 1 438  3.293843 9.952755 7.686827  0.000000
439 1 439  1.687348 4.949869 6.526212  0.000000
440 1 440  9.763172 0.395245 9.903091  0.000000
441 1 441  0.750800 0.361002 6.734151  0.000000
442 1 442  4.658169 0.934566 9.801983  0.000000
443 1 443  8.889852 9.351833 7.517917  0.000000
444 1 444  4.009404 8.409013 6.119081  0.000000
445 1 445  7.296722 8.084861 2.015360  0.000000
446 1 446  5.833683 0.652870 9.151301  0.000000
447 1 447  3.351150 7.372167 1.190597  0.000000
448 1 448  7.811366 3.547823 6.433394  0.000000
449 1 449  8.989841 8.358701 8.094441  0.000000
450 1 450  5.700884 7.840834 7.588785  0.000000
451 1 451  6.013126 8.918805 9.465785  0.000000
452 1 452  3.697281 3.374267 7.670946  0.000000
453 1 453  0.356362 1.164167 7.795851  0.000000
454 1 454  0.152103 0.117021 3.275999  0.000000
455 1 455  4.037136 4.613982 7.747947  0.000000
456 1 456  9.498511 2.594484 0.377127  0.000000
457 1 457  4.587914 0.082231 4.448132  0.000000
458 1 458  4.324859 3.054412 3.152770  0.000000
459 1 459  6.760235 4.705849 7.594755  0.000000
460 1 460  6.255721 7.011196 1.224723  0.000000
461 1 461  5.042007 4.545105 0.112609  0.000000
462 1 462  9.177062 6.991866 4.762934  0.000000
463 1 463  3.900936 9.064666 2.931086  0.000000
464 1 464  5.439401 7.102190 2.120393  0.000000
465 1 465  0.980616 0.920853 3.261104  0.000000
466 1 466  4.895845 2.777053 3.632259  0.000000
467 1 467  4.687670 5.047173 1.175151  0.000000
468 1 468  5.885357 3.520063 0.719807  0.000000
469 1 469  1.470858 6.148787 8.830510  0.000000
470 1 470  7.969130 6.357878 1.518844  0.000000
471 1 471  1.743731 3.218779 8.886145  0.000000
472 1 472  8.793223 8.029187 7.633136  0.000000
473 1 473  2.854392 1.320034 5.770166  0.000000
474 1 474  4.620628 7.502628 4.859013  0.000000
475 1 475  7.670539 7.249302 2.695163  0.000000
476 1 476  9.278344 9.889065 3.257820  0.000000
477 1 477  9.664495 7.545892 6.586439  0.000000
478 1 478  4.194589 8.897740 9.858533  0.000000
479 1 479  3.661030 0.752078 4.174189  0.000000
480 1 480  5.607788 7.057280 5.126420  0.000000
481 1 481  1.929541 2.132510 6.406413  0.000000
482 1 482  6.047253 0.929194 0.413013  0.000000
483 1 483  0.817571 5.364632 3.808134  0.000000
484 1 484  2.362892 0.874024 8.695043  0.000000
485 1 485  9.106699 1.101284 3.637537  0.000000
486 1 486  8.949542 6.942738 7.191360  0.000000
487 1 487  2.900670 2.266468 2.720425  0.000000
488 1 488  3.482688 4.482393 4.864713  0.000000
489 1 489  5.506931 0.934957 5.171932  0.000000
490 1 490  6.247274 0.602117 9.678413  0.000000
491 1 491  7.873837 9.835288 2.494132  0.000000
492 1 492  8.711690 3.237958 0.379266  0.000000
493 1 493  4.760423 4.779034 4.516482  0.000000
494 1 494  0.784567 6.027059 5.965858  0.000000
495 1 495  6.049016 6.153573 2.413092  0.000000
496 1 496  4.906616 3.625755 2.780469  0.000000
497 1 497  6.238235 3.168685 5.505634  0.000000
498 1 498  1.614314 1.829677 5.598397  0.000000
499 1 499  9.142444 7.915433 4.385373  0.000000
500 1 500  3.014091 4.960329 9.352819  0.000000
501 1 501  2.412837 6.020587 7.367540  0.000000
502 1 502  6.492206 0.956453 1.835631  0.000000
503 1 503  5.399397 5.756742 5.824689  0.000000
504 1 504  7.715588 1.513261 5.905026  0.000000
505 1 505  6.299703 4.159513 3.759631  0.000000
506 1 506  8.325846 8.746519 9.915545  0.000000
507 1 507  4.623454 9.414149 5.131325  0.000000
508 1 508  3.645126 4.232601 0.083410  0.000000
509 1 509  1.695535 3.830373 1.747454  0.000000
510 1 510  8.651171 8.968999 5.950205  0.000000
511 1 511  2.994601 6.693967 7.569456  0.000000
512 1 512  1.707283 7.672565 1.187940  0.000000
513 1 513  1.693880 6.068827 3.747433  0.000000
514 1 514  4.849093 6.894957 1.983647  0.000000
515 1 515  5.275697 0.908132 4.422491  0.000000
516 1 516  3.535864 1.342041 5.631035  0.000000
517 1 517  4.741250 3.366537 8.035166  0.000000
518 1 518  2.611916 3.470096 9.027347  0.000000
519 1 519  1.419962 9.682594 6.318089  0.000000
520 1 520  7.840328 5.704963 6.571289  0.000000
521 1 521  3.779557 7.435294 3.224960  0.000000
522 1 522  9.769955 0.507264 5.207458  0.000000
523 1 523  2.801173 2.962026 8.220994  0.000000
524 1 524  8.959190 0.376151 9.546605  0.000000
525 1 525  4.302551 7.299508 1.629327  0.000000
526 1 526  9.209188 1.714319 7.206245  0.000000
527 1 527  4.212109 4.513598 0.078188  0.000000
528 1 528  8.817125 6.835520 6.101262  0.000000
529 1 529  2.230962 6.386700 7.547211  0.000000
530 1 530  1.269880 9.016047 0.725039  0.000000
531 1 531  2.023795 3.790020 2.625576  0.000000
532 1 532  5.667619 2.188678 6.931931  0.000000
533 1 533  9.539730 8.187143 4.523345  0.000000
534 1 534  1.548487 2.946930 4.010644  0.000000
535 1 535  1.892289 8.481847 6.248256  0.000000
536 1 536  0.224915 1.781764 9.747092  0.000000
537 1 537  1.701441 8.108787 7.986194  0.000000
538 1 538  6.605256 3.740305 5.848749  0.000000
539 1 539  0.082553 2.050268 2.502542  0.000000
540 1 540  1.377657 4.689282 4.754144  0.000000
541 1 541  6.619950 5.740210 7.501008  0.000000
542 1 542  3.821086 3.303594 3.524599  0.000000
543 1 543  0.526899 4.435792 5.868402  0.000000
544 1 544  4.374044 6.956916 8.998646  0.000000
545 1 545  5.577632 8.290283 9.099744  0.000000
546 1 546  5.123535 5.288581 5.805728  0.000000
547 1 547  7.231225 0.779973 8.861704  0.000000
548 1 548  6.818823 9.424154 5.247745  0.000000
549 1 549  0.303314 8.845608 9.939303  0.000000
550 1 550  7.965302 4.451353 2.902872  0.000000
551 1 551  4.133959 2.094508 3.494320  0.000000
552 1 552  0.611488 5.972608 8.623954  0.000000
553 1 553  5.750255 0.316035 9.587390  0.000000
554 1 554  4.255723 6.313491 9.598050  0.000000
555 1 555  1.592044 8.131429 9.227280  0.000000
556 1 556  9.806099 9.463569 9.087095  0.000000
557 1 557  7.973847 4.711255 2.581194  0.000000
558 1 558  0.605664 0.311014 6.929241  0.000000
559 1 559  9.861335 6.707192 2.748997  0.000000
560 1 560  1.196184 6.511651 8.111921  0.000000
561 1 561  3.585450 3.521812 2.928912  0.000000
562 1 562  3.650254 2.409497 0.542866  0.000000
563 1 563  7.399081 5.818191 6.741076  0.000000
564 1 564  5.957308 6.639273 2.071147  0.000000
565 1 565  4.550260 3.661905 1.437477  0.000000
566 1 566  9.854204 3.237465 4.140138  0.000000
567 1 567  1.021410 8.264133 6.514171  0.000000
568 1 568  4.383314 3.460475 0.186445  0.000000
569 1 569  7.532229 4.878069 9.898694  0.000000
570 1 570  2.904742 7.281139 6.718899  0.000000
571 1 571  8.751818 2.650158 3.847428  0.000000
572 1 572  1.274346 3.665433 2.804097  0.000000
573 1 573  6.099960 5.729892 7.350617  0.000000
574 1 574  4.724273 3.852345 1.211155  0.000000
575 1 575  4.906848 9.752886 5.817395  0.000000
576 1 576  2.539805 7.385024 1.321303  0.000000
577 1 577  4.644564 8.498188 2.227629  0.000000
578 1 578  8.843143 7.862599 2.954619  0.000000
579 1 579  2.578973 3.546381 3.970342  0.000000
580 1 580  0.755538 1.579176 3.746995  0.000000
581 1 581  5.168520 4.582800 3.756054  0.000000
582 1 582  5.088839 5.966630 4.854843  0.000000
583 1 583  9.007166 0.470093 4.249007  0.000000
584 1 584  5.263069 8.168299 1.101225  0.000000
585 1 585  2.470431 8.733611 1.774993  0.000000
586 1 586  2.628214 9.143349 5.337531  0.000000
587 1 587  9.206969 9.669991 7.383089  0.000000
588 1 588  7.559015 0.844506 1.844480  0.000000
589 1 589  2.728769 7.229121 5.738114  0.000000
590 1 590  6.573505 8.064667 9.414251  0.000000
591 1 591  0.148254 0.731323 8.859970  0.000000
592 1 592  5.076523 2.661454 2.956888  0.000000
593 1 593  2.594316 2.293518 5.822493  0.000000
594 1 594  2.283546 5.109007 9.648387  0.000000
595 1 595  6.995815 4.836493 0.939627  0.000000
596 1 596  1.944106 4.378026 6.709372  0.000000
597 1 597  5.669218 6.976327 5.113204  0.000000
598 1 598  8.727775 2.286099 9.410063  0.000000
599 1 599  6.789037 8.830328 6.434236  0.000000
600 1 600  0.731118 9.304411 6.445133  0.000000
601 1 601  7.366851 2.734348 4.850489  0.000000
602 1 602  7.539083 8.118930 7.931146  0.000000
603 1 603  4.647967 0.311619 2.223313  0.000000
604 1 604  4.139581 5.315650 3.330734  0.000000
605 1 605  7.359109 1.236895 8.339441  0.000000
606 1 606  3.006368 1.740322 1.903611  0.000000
607 1 607  6.683887 9.471580 7.502527  0.000000
608 1 608  9.819999 7.113173 3.992289  0.000000
609 1 609  4.796862 9.316285 9.340947  0.000000
610 1 610  7.410415 0.322209 0.553166  0.000000
611 1 611  5.599010 1.625573 7.478253  0.000000
612 1 612  3.586507 9.543666 5.184433  0.000000
613 1 613  4.438923 0.013769 6.741287  0.000000
614 1 614  7.925395 7.146347 2.219337  0.000000
615 1 615  3.079803 4.835211 2.589834  0.000000
616 1 616  2.370936 8.903700 7.331611  0.000000
617 1 617  4.395612 2.117128 6.725879  0.000000
618 1 618  5.786663 2.693202 7.434356  0.000000
619 1 619  6.225175 4.653089 4.117409  0.000000
620 1 620  1.661776 6.869950 8.896792  0.000000
621 1 621  1.377715 3.674086 3.936383  0.000000
622 1 622  5.402779 0.918771 6.776262  0.000000
623 1 623  4.606775 2.653621 9.268246  0.000000
624 1 624  8.627813 4.886994 8.856359  0.000000
625 1 625  6.296680 0.432807 2.448875  0.000000
626 1 626  5.547245 0.001868 4.341100  0.000000