Madatory string --> First rule of programing: if it works then don't touch it!

2 atoms
0 bonds
0 angles

1 atom types
0 bond types
0 angle types

0.000 30 xlo xhi
0.000 30 ylo yhi
0.000 30 zlo zhi

Masses

1 1.000000 

Atoms

1 1 1  -100 15 15 15
2 2 1  100 17 15 15
