ITEM: TIMESTEP
15000
ITEM: NUMBER OF ATOMS
4
ITEM: BOX BOUNDS pp pp pp
0.000000 60.000000
0.000000 60.000000
0.000000 60.000000
ITEM: ATOMS id type mol x y z q
1 1 1  11.876097 44.373287 13.419854  0.000000
2 1 2  31.207777 23.370855 29.478931  0.000000
3 1 3  30.759113 47.824505 39.572235  0.000000
4 1 4  23.058735 34.955799 19.753466  0.000000
