ITEM: TIMESTEP
0
ITEM: NUMBER OF ATOMS
2
ITEM: BOX BOUNDS pp pp pp
0.000000 30.000000
0.000000 30.000000
0.000000 30.000000
ITEM: ATOMS id type mol x y z q
1 1 1  15.000000 15.000000 15.000000  -100.000000
2 1 2  17.000000 15.000000 15.000000  100.000000
ITEM: TIMESTEP
100
ITEM: NUMBER OF ATOMS
2
ITEM: BOX BOUNDS pp pp pp
0.000000 30.000000
0.000000 30.000000
0.000000 30.000000
ITEM: ATOMS id type mol x y z q
1 1 1  16.290438 14.804603 14.941341  -100.000000
2 1 2  15.678073 14.821606 14.961400  100.000000
ITEM: TIMESTEP
200
ITEM: NUMBER OF ATOMS
2
ITEM: BOX BOUNDS pp pp pp
0.000000 30.000000
0.000000 30.000000
0.000000 30.000000
ITEM: ATOMS id type mol x y z q
1 1 1  16.676365 14.518011 14.772553  -100.000000
2 1 2  15.719387 14.546777 14.832530  100.000000
ITEM: TIMESTEP
300
ITEM: NUMBER OF ATOMS
2
ITEM: BOX BOUNDS pp pp pp
0.000000 30.000000
0.000000 30.000000
0.000000 30.000000
ITEM: ATOMS id type mol x y z q
1 1 1  16.840364 14.428079 14.683819  -100.000000
2 1 2  16.067104 14.471889 14.727603  100.000000
ITEM: TIMESTEP
400
ITEM: NUMBER OF ATOMS
2
ITEM: BOX BOUNDS pp pp pp
0.000000 30.000000
0.000000 30.000000
0.000000 30.000000
ITEM: ATOMS id type mol x y z q
1 1 1  16.592405 14.586165 14.696072  -100.000000
2 1 2  16.348221 14.641092 14.711100  100.000000
ITEM: TIMESTEP
500
ITEM: NUMBER OF ATOMS
2
ITEM: BOX BOUNDS pp pp pp
0.000000 30.000000
0.000000 30.000000
0.000000 30.000000
ITEM: ATOMS id type mol x y z q
1 1 1  16.319023 14.543094 14.846298  -100.000000
2 1 2  16.528059 14.584396 14.793921  100.000000
ITEM: TIMESTEP
600
ITEM: NUMBER OF ATOMS
2
ITEM: BOX BOUNDS pp pp pp
0.000000 30.000000
0.000000 30.000000
0.000000 30.000000
ITEM: ATOMS id type mol x y z q
1 1 1  16.633968 14.259664 14.738967  -100.000000
2 1 2  17.007341 14.300089 14.666379  100.000000
ITEM: TIMESTEP
700
ITEM: NUMBER OF ATOMS
2
ITEM: BOX BOUNDS pp pp pp
0.000000 30.000000
0.000000 30.000000
0.000000 30.000000
ITEM: ATOMS id type mol x y z q
1 1 1  16.763338 14.164229 14.654127  -100.000000
2 1 2  17.012194 14.115500 14.648336  100.000000
ITEM: TIMESTEP
800
ITEM: NUMBER OF ATOMS
2
ITEM: BOX BOUNDS pp pp pp
0.000000 30.000000
0.000000 30.000000
0.000000 30.000000
ITEM: ATOMS id type mol x y z q
1 1 1  16.836637 14.099325 14.434882  -100.000000
2 1 2  16.792797 14.059976 14.469270  100.000000
ITEM: TIMESTEP
900
ITEM: NUMBER OF ATOMS
2
ITEM: BOX BOUNDS pp pp pp
0.000000 30.000000
0.000000 30.000000
0.000000 30.000000
ITEM: ATOMS id type mol x y z q
1 1 1  16.513506 14.371005 14.322849  -100.000000
2 1 2  16.380713 14.360766 14.337591  100.000000
ITEM: TIMESTEP
1000
ITEM: NUMBER OF ATOMS
2
ITEM: BOX BOUNDS pp pp pp
0.000000 30.000000
0.000000 30.000000
0.000000 30.000000
ITEM: ATOMS id type mol x y z q
1 1 1  15.733227 14.866337 14.182054  -100.000000
2 1 2  15.620235 14.861732 14.167532  100.000000
ITEM: TIMESTEP
1100
ITEM: NUMBER OF ATOMS
2
ITEM: BOX BOUNDS pp pp pp
0.000000 30.000000
0.000000 30.000000
0.000000 30.000000
ITEM: ATOMS id type mol x y z q
1 1 1  14.651919 15.093600 13.801072  -100.000000
2 1 2  14.636733 15.151147 13.794524  100.000000
ITEM: TIMESTEP
1200
ITEM: NUMBER OF ATOMS
2
ITEM: BOX BOUNDS pp pp pp
0.000000 30.000000
0.000000 30.000000
0.000000 30.000000
ITEM: ATOMS id type mol x y z q
1 1 1  13.905211 15.560858 13.574693  -100.000000
2 1 2  13.982224 15.579520 13.588201  100.000000
ITEM: TIMESTEP
1300
ITEM: NUMBER OF ATOMS
2
ITEM: BOX BOUNDS pp pp pp
0.000000 30.000000
0.000000 30.000000
0.000000 30.000000
ITEM: ATOMS id type mol x y z q
1 1 1  13.378608 15.628708 13.272901  -100.000000
2 1 2  13.438138 15.576636 13.278840  100.000000
ITEM: TIMESTEP
1400
ITEM: NUMBER OF ATOMS
2
ITEM: BOX BOUNDS pp pp pp
0.000000 30.000000
0.000000 30.000000
0.000000 30.000000
ITEM: ATOMS id type mol x y z q
1 1 1  12.915957 15.577560 13.682499  -100.000000
2 1 2  12.920210 15.501847 13.662081  100.000000
ITEM: TIMESTEP
1500
ITEM: NUMBER OF ATOMS
2
ITEM: BOX BOUNDS pp pp pp
0.000000 30.000000
0.000000 30.000000
0.000000 30.000000
ITEM: ATOMS id type mol x y z q
1 1 1  12.681273 15.435991 14.389212  -100.000000
2 1 2  12.667748 15.446109 14.294064  100.000000
ITEM: TIMESTEP
1600
ITEM: NUMBER OF ATOMS
2
ITEM: BOX BOUNDS pp pp pp
0.000000 30.000000
0.000000 30.000000
0.000000 30.000000
ITEM: ATOMS id type mol x y z q
1 1 1  12.508121 15.617780 14.940966  -100.000000
2 1 2  12.491096 15.657765 14.924951  100.000000
ITEM: TIMESTEP
1700
ITEM: NUMBER OF ATOMS
2
ITEM: BOX BOUNDS pp pp pp
0.000000 30.000000
0.000000 30.000000
0.000000 30.000000
ITEM: ATOMS id type mol x y z q
1 1 1  12.092691 15.842867 15.318068  -100.000000
2 1 2  12.105712 15.863291 15.365534  100.000000
ITEM: TIMESTEP
1800
ITEM: NUMBER OF ATOMS
2
ITEM: BOX BOUNDS pp pp pp
0.000000 30.000000
0.000000 30.000000
0.000000 30.000000
ITEM: ATOMS id type mol x y z q
1 1 1  11.828545 16.051205 15.572822  -100.000000
2 1 2  11.859944 15.982810 15.624964  100.000000
ITEM: TIMESTEP
1900
ITEM: NUMBER OF ATOMS
2
ITEM: BOX BOUNDS pp pp pp
0.000000 30.000000
0.000000 30.000000
0.000000 30.000000
ITEM: ATOMS id type mol x y z q
1 1 1  11.858151 16.094076 15.524910  -100.000000
2 1 2  11.887458 16.068007 15.577383  100.000000
ITEM: TIMESTEP
2000
ITEM: NUMBER OF ATOMS
2
ITEM: BOX BOUNDS pp pp pp
0.000000 30.000000
0.000000 30.000000
0.000000 30.000000
ITEM: ATOMS id type mol x y z q
1 1 1  11.983002 16.104103 15.951037  -100.000000
2 1 2  12.001819 16.134855 15.920808  100.000000
ITEM: TIMESTEP
2100
ITEM: NUMBER OF ATOMS
2
ITEM: BOX BOUNDS pp pp pp
0.000000 30.000000
0.000000 30.000000
0.000000 30.000000
ITEM: ATOMS id type mol x y z q
1 1 1  12.015300 16.488632 16.476973  -100.000000
2 1 2  11.947398 16.510328 16.395550  100.000000
ITEM: TIMESTEP
2200
ITEM: NUMBER OF ATOMS
2
ITEM: BOX BOUNDS pp pp pp
0.000000 30.000000
0.000000 30.000000
0.000000 30.000000
ITEM: ATOMS id type mol x y z q
1 1 1  11.934468 16.802307 17.087574  -100.000000
2 1 2  11.917488 16.744503 17.066984  100.000000
ITEM: TIMESTEP
2300
ITEM: NUMBER OF ATOMS
2
ITEM: BOX BOUNDS pp pp pp
0.000000 30.000000
0.000000 30.000000
0.000000 30.000000
ITEM: ATOMS id type mol x y z q
1 1 1  12.329283 17.397129 17.754372  -100.000000
2 1 2  12.318728 17.320637 17.772064  100.000000
ITEM: TIMESTEP
2400
ITEM: NUMBER OF ATOMS
2
ITEM: BOX BOUNDS pp pp pp
0.000000 30.000000
0.000000 30.000000
0.000000 30.000000
ITEM: ATOMS id type mol x y z q
1 1 1  12.696110 17.823198 18.225109  -100.000000
2 1 2  12.721025 17.794249 18.223705  100.000000
ITEM: TIMESTEP
2500
ITEM: NUMBER OF ATOMS
2
ITEM: BOX BOUNDS pp pp pp
0.000000 30.000000
0.000000 30.000000
0.000000 30.000000
ITEM: ATOMS id type mol x y z q
1 1 1  13.010277 18.157751 18.599201  -100.000000
2 1 2  13.049747 18.164326 18.595064  100.000000
ITEM: TIMESTEP
2600
ITEM: NUMBER OF ATOMS
2
ITEM: BOX BOUNDS pp pp pp
0.000000 30.000000
0.000000 30.000000
0.000000 30.000000
ITEM: ATOMS id type mol x y z q
1 1 1  13.214935 18.453611 18.898201  -100.000000
2 1 2  13.199944 18.467936 18.859035  100.000000
ITEM: TIMESTEP
2700
ITEM: NUMBER OF ATOMS
2
ITEM: BOX BOUNDS pp pp pp
0.000000 30.000000
0.000000 30.000000
0.000000 30.000000
ITEM: ATOMS id type mol x y z q
1 1 1  13.261469 18.802647 18.969179  -100.000000
2 1 2  13.204086 18.806501 18.896856  100.000000
ITEM: TIMESTEP
2800
ITEM: NUMBER OF ATOMS
2
ITEM: BOX BOUNDS pp pp pp
0.000000 30.000000
0.000000 30.000000
0.000000 30.000000
ITEM: ATOMS id type mol x y z q
1 1 1  13.116001 19.199585 18.921124  -100.000000
2 1 2  13.056334 19.203508 18.870825  100.000000
ITEM: TIMESTEP
2900
ITEM: NUMBER OF ATOMS
2
ITEM: BOX BOUNDS pp pp pp
0.000000 30.000000
0.000000 30.000000
0.000000 30.000000
ITEM: ATOMS id type mol x y z q
1 1 1  13.056444 19.331896 18.714245  -100.000000
2 1 2  13.042116 19.338678 18.727552  100.000000
ITEM: TIMESTEP
3000
ITEM: NUMBER OF ATOMS
2
ITEM: BOX BOUNDS pp pp pp
0.000000 30.000000
0.000000 30.000000
0.000000 30.000000
ITEM: ATOMS id type mol x y z q
1 1 1  12.862201 19.008543 19.058535  -100.000000
2 1 2  12.884377 18.976727 19.096882  100.000000
ITEM: TIMESTEP
3100
ITEM: NUMBER OF ATOMS
2
ITEM: BOX BOUNDS pp pp pp
0.000000 30.000000
0.000000 30.000000
0.000000 30.000000
ITEM: ATOMS id type mol x y z q
1 1 1  12.749723 18.668118 19.038502  -100.000000
2 1 2  12.775141 18.667044 19.026178  100.000000
ITEM: TIMESTEP
3200
ITEM: NUMBER OF ATOMS
2
ITEM: BOX BOUNDS pp pp pp
0.000000 30.000000
0.000000 30.000000
0.000000 30.000000
ITEM: ATOMS id type mol x y z q
1 1 1  12.665703 18.558603 18.992731  -100.000000
2 1 2  12.716203 18.575428 19.000828  100.000000
ITEM: TIMESTEP
3300
ITEM: NUMBER OF ATOMS
2
ITEM: BOX BOUNDS pp pp pp
0.000000 30.000000
0.000000 30.000000
0.000000 30.000000
ITEM: ATOMS id type mol x y z q
1 1 1  12.525284 18.762693 19.028942  -100.000000
2 1 2  12.548122 18.811102 19.031137  100.000000
ITEM: TIMESTEP
3400
ITEM: NUMBER OF ATOMS
2
ITEM: BOX BOUNDS pp pp pp
0.000000 30.000000
0.000000 30.000000
0.000000 30.000000
ITEM: ATOMS id type mol x y z q
1 1 1  12.817302 18.966463 19.001955  -100.000000
2 1 2  12.761287 18.994858 19.031765  100.000000
ITEM: TIMESTEP
3500
ITEM: NUMBER OF ATOMS
2
ITEM: BOX BOUNDS pp pp pp
0.000000 30.000000
0.000000 30.000000
0.000000 30.000000
ITEM: ATOMS id type mol x y z q
1 1 1  12.910244 19.101629 19.020252  -100.000000
2 1 2  12.861489 19.105410 19.023354  100.000000
ITEM: TIMESTEP
3600
ITEM: NUMBER OF ATOMS
2
ITEM: BOX BOUNDS pp pp pp
0.000000 30.000000
0.000000 30.000000
0.000000 30.000000
ITEM: ATOMS id type mol x y z q
1 1 1  12.657555 19.493406 18.998350  -100.000000
2 1 2  12.680905 19.452394 18.960915  100.000000
ITEM: TIMESTEP
3700
ITEM: NUMBER OF ATOMS
2
ITEM: BOX BOUNDS pp pp pp
0.000000 30.000000
0.000000 30.000000
0.000000 30.000000
ITEM: ATOMS id type mol x y z q
1 1 1  12.160922 19.784496 18.833395  -100.000000
2 1 2  12.197307 19.759796 18.762444  100.000000
ITEM: TIMESTEP
3800
ITEM: NUMBER OF ATOMS
2
ITEM: BOX BOUNDS pp pp pp
0.000000 30.000000
0.000000 30.000000
0.000000 30.000000
ITEM: ATOMS id type mol x y z q
1 1 1  11.426155 19.855772 18.665285  -100.000000
2 1 2  11.424516 19.829163 18.657557  100.000000
ITEM: TIMESTEP
3900
ITEM: NUMBER OF ATOMS
2
ITEM: BOX BOUNDS pp pp pp
0.000000 30.000000
0.000000 30.000000
0.000000 30.000000
ITEM: ATOMS id type mol x y z q
1 1 1  10.913130 19.739956 18.501535  -100.000000
2 1 2  10.853225 19.754366 18.584152  100.000000
ITEM: TIMESTEP
4000
ITEM: NUMBER OF ATOMS
2
ITEM: BOX BOUNDS pp pp pp
0.000000 30.000000
0.000000 30.000000
0.000000 30.000000
ITEM: ATOMS id type mol x y z q
1 1 1  10.477491 19.239641 18.144894  -100.000000
2 1 2  10.416761 19.250990 18.194246  100.000000
ITEM: TIMESTEP
4100
ITEM: NUMBER OF ATOMS
2
ITEM: BOX BOUNDS pp pp pp
0.000000 30.000000
0.000000 30.000000
0.000000 30.000000
ITEM: ATOMS id type mol x y z q
1 1 1  10.040786 18.914265 17.888197  -100.000000
2 1 2  10.016957 18.936815 17.867512  100.000000
ITEM: TIMESTEP
4200
ITEM: NUMBER OF ATOMS
2
ITEM: BOX BOUNDS pp pp pp
0.000000 30.000000
0.000000 30.000000
0.000000 30.000000
ITEM: ATOMS id type mol x y z q
1 1 1  9.830519 18.762991 18.225405  -100.000000
2 1 2  9.881370 18.831446 18.178902  100.000000
ITEM: TIMESTEP
4300
ITEM: NUMBER OF ATOMS
2
ITEM: BOX BOUNDS pp pp pp
0.000000 30.000000
0.000000 30.000000
0.000000 30.000000
ITEM: ATOMS id type mol x y z q
1 1 1  9.688499 18.749990 18.573090  -100.000000
2 1 2  9.757686 18.806444 18.543556  100.000000
ITEM: TIMESTEP
4400
ITEM: NUMBER OF ATOMS
2
ITEM: BOX BOUNDS pp pp pp
0.000000 30.000000
0.000000 30.000000
0.000000 30.000000
ITEM: ATOMS id type mol x y z q
1 1 1  9.374300 18.856113 18.789635  -100.000000
2 1 2  9.370269 18.829702 18.774271  100.000000
ITEM: TIMESTEP
4500
ITEM: NUMBER OF ATOMS
2
ITEM: BOX BOUNDS pp pp pp
0.000000 30.000000
0.000000 30.000000
0.000000 30.000000
ITEM: ATOMS id type mol x y z q
1 1 1  8.973460 19.265890 18.728310  -100.000000
2 1 2  8.944885 19.187969 18.789234  100.000000
ITEM: TIMESTEP
4600
ITEM: NUMBER OF ATOMS
2
ITEM: BOX BOUNDS pp pp pp
0.000000 30.000000
0.000000 30.000000
0.000000 30.000000
ITEM: ATOMS id type mol x y z q
1 1 1  8.401364 19.604645 18.327890  -100.000000
2 1 2  8.387238 19.548464 18.342070  100.000000
ITEM: TIMESTEP
4700
ITEM: NUMBER OF ATOMS
2
ITEM: BOX BOUNDS pp pp pp
0.000000 30.000000
0.000000 30.000000
0.000000 30.000000
ITEM: ATOMS id type mol x y z q
1 1 1  8.041399 19.682722 17.916693  -100.000000
2 1 2  8.042154 19.692266 17.896955  100.000000
ITEM: TIMESTEP
4800
ITEM: NUMBER OF ATOMS
2
ITEM: BOX BOUNDS pp pp pp
0.000000 30.000000
0.000000 30.000000
0.000000 30.000000
ITEM: ATOMS id type mol x y z q
1 1 1  7.703479 19.776459 17.658684  -100.000000
2 1 2  7.693280 19.828516 17.649195  100.000000
ITEM: TIMESTEP
4900
ITEM: NUMBER OF ATOMS
2
ITEM: BOX BOUNDS pp pp pp
0.000000 30.000000
0.000000 30.000000
0.000000 30.000000
ITEM: ATOMS id type mol x y z q
1 1 1  7.358962 19.917501 17.504423  -100.000000
2 1 2  7.321313 20.000221 17.549671  100.000000
ITEM: TIMESTEP
5000
ITEM: NUMBER OF ATOMS
2
ITEM: BOX BOUNDS pp pp pp
0.000000 30.000000
0.000000 30.000000
0.000000 30.000000
ITEM: ATOMS id type mol x y z q
1 1 1  7.702827 20.241617 17.563093  -100.000000
2 1 2  7.675515 20.253756 17.602524  100.000000
ITEM: TIMESTEP
5100
ITEM: NUMBER OF ATOMS
2
ITEM: BOX BOUNDS pp pp pp
0.000000 30.000000
0.000000 30.000000
0.000000 30.000000
ITEM: ATOMS id type mol x y z q
1 1 1  8.643879 20.562445 17.877100  -100.000000
2 1 2  8.655662 20.596342 17.883684  100.000000
ITEM: TIMESTEP
5200
ITEM: NUMBER OF ATOMS
2
ITEM: BOX BOUNDS pp pp pp
0.000000 30.000000
0.000000 30.000000
0.000000 30.000000
ITEM: ATOMS id type mol x y z q
1 1 1  9.362203 20.751472 18.193279  -100.000000
2 1 2  9.385281 20.751183 18.244768  100.000000
ITEM: TIMESTEP
5300
ITEM: NUMBER OF ATOMS
2
ITEM: BOX BOUNDS pp pp pp
0.000000 30.000000
0.000000 30.000000
0.000000 30.000000
ITEM: ATOMS id type mol x y z q
1 1 1  9.727676 21.063547 18.737984  -100.000000
2 1 2  9.764073 21.042549 18.765272  100.000000
ITEM: TIMESTEP
5400
ITEM: NUMBER OF ATOMS
2
ITEM: BOX BOUNDS pp pp pp
0.000000 30.000000
0.000000 30.000000
0.000000 30.000000
ITEM: ATOMS id type mol x y z q
1 1 1  9.639730 20.701651 18.616989  -100.000000
2 1 2  9.617483 20.684357 18.604342  100.000000
ITEM: TIMESTEP
5500
ITEM: NUMBER OF ATOMS
2
ITEM: BOX BOUNDS pp pp pp
0.000000 30.000000
0.000000 30.000000
0.000000 30.000000
ITEM: ATOMS id type mol x y z q
1 1 1  9.226343 20.853487 18.458605  -100.000000
2 1 2  9.198291 20.850063 18.488844  100.000000
ITEM: TIMESTEP
5600
ITEM: NUMBER OF ATOMS
2
ITEM: BOX BOUNDS pp pp pp
0.000000 30.000000
0.000000 30.000000
0.000000 30.000000
ITEM: ATOMS id type mol x y z q
1 1 1  9.098578 21.233871 18.324385  -100.000000
2 1 2  9.081184 21.195810 18.406033  100.000000
ITEM: TIMESTEP
5700
ITEM: NUMBER OF ATOMS
2
ITEM: BOX BOUNDS pp pp pp
0.000000 30.000000
0.000000 30.000000
0.000000 30.000000
ITEM: ATOMS id type mol x y z q
1 1 1  9.278686 21.180054 17.997513  -100.000000
2 1 2  9.241193 21.144976 18.053514  100.000000
ITEM: TIMESTEP
5800
ITEM: NUMBER OF ATOMS
2
ITEM: BOX BOUNDS pp pp pp
0.000000 30.000000
0.000000 30.000000
0.000000 30.000000
ITEM: ATOMS id type mol x y z q
1 1 1  9.303283 20.911625 18.131676  -100.000000
2 1 2  9.264133 20.939770 18.131355  100.000000
ITEM: TIMESTEP
5900
ITEM: NUMBER OF ATOMS
2
ITEM: BOX BOUNDS pp pp pp
0.000000 30.000000
0.000000 30.000000
0.000000 30.000000
ITEM: ATOMS id type mol x y z q
1 1 1  9.251207 20.506990 18.422237  -100.000000
2 1 2  9.244418 20.546673 18.405201  100.000000
ITEM: TIMESTEP
6000
ITEM: NUMBER OF ATOMS
2
ITEM: BOX BOUNDS pp pp pp
0.000000 30.000000
0.000000 30.000000
0.000000 30.000000
ITEM: ATOMS id type mol x y z q
1 1 1  9.267747 20.187548 18.633831  -100.000000
2 1 2  9.313801 20.229738 18.660526  100.000000
ITEM: TIMESTEP
6100
ITEM: NUMBER OF ATOMS
2
ITEM: BOX BOUNDS pp pp pp
0.000000 30.000000
0.000000 30.000000
0.000000 30.000000
ITEM: ATOMS id type mol x y z q
1 1 1  9.562302 20.170647 18.875458  -100.000000
2 1 2  9.586986 20.174465 18.906811  100.000000
ITEM: TIMESTEP
6200
ITEM: NUMBER OF ATOMS
2
ITEM: BOX BOUNDS pp pp pp
0.000000 30.000000
0.000000 30.000000
0.000000 30.000000
ITEM: ATOMS id type mol x y z q
1 1 1  9.414930 19.999716 18.832869  -100.000000
2 1 2  9.452889 19.984613 18.832661  100.000000
ITEM: TIMESTEP
6300
ITEM: NUMBER OF ATOMS
2
ITEM: BOX BOUNDS pp pp pp
0.000000 30.000000
0.000000 30.000000
0.000000 30.000000
ITEM: ATOMS id type mol x y z q
1 1 1  9.024317 19.761488 18.595690  -100.000000
2 1 2  9.010690 19.749161 18.551922  100.000000
ITEM: TIMESTEP
6400
ITEM: NUMBER OF ATOMS
2
ITEM: BOX BOUNDS pp pp pp
0.000000 30.000000
0.000000 30.000000
0.000000 30.000000
ITEM: ATOMS id type mol x y z q
1 1 1  8.669383 19.922691 18.355801  -100.000000
2 1 2  8.625278 19.910431 18.323107  100.000000
ITEM: TIMESTEP
6500
ITEM: NUMBER OF ATOMS
2
ITEM: BOX BOUNDS pp pp pp
0.000000 30.000000
0.000000 30.000000
0.000000 30.000000
ITEM: ATOMS id type mol x y z q
1 1 1  8.631139 20.199863 17.964888  -100.000000
2 1 2  8.669834 20.233595 18.025509  100.000000
ITEM: TIMESTEP
6600
ITEM: NUMBER OF ATOMS
2
ITEM: BOX BOUNDS pp pp pp
0.000000 30.000000
0.000000 30.000000
0.000000 30.000000
ITEM: ATOMS id type mol x y z q
1 1 1  8.477414 20.736555 17.647577  -100.000000
2 1 2  8.549370 20.723156 17.700451  100.000000
ITEM: TIMESTEP
6700
ITEM: NUMBER OF ATOMS
2
ITEM: BOX BOUNDS pp pp pp
0.000000 30.000000
0.000000 30.000000
0.000000 30.000000
ITEM: ATOMS id type mol x y z q
1 1 1  8.353235 21.210316 17.540947  -100.000000
2 1 2  8.399272 21.189074 17.498457  100.000000
ITEM: TIMESTEP
6800
ITEM: NUMBER OF ATOMS
2
ITEM: BOX BOUNDS pp pp pp
0.000000 30.000000
0.000000 30.000000
0.000000 30.000000
ITEM: ATOMS id type mol x y z q
1 1 1  8.440988 21.886412 17.787769  -100.000000
2 1 2  8.423152 21.868332 17.759331  100.000000
ITEM: TIMESTEP
6900
ITEM: NUMBER OF ATOMS
2
ITEM: BOX BOUNDS pp pp pp
0.000000 30.000000
0.000000 30.000000
0.000000 30.000000
ITEM: ATOMS id type mol x y z q
1 1 1  8.493839 22.371141 18.119051  -100.000000
2 1 2  8.480537 22.400879 18.130922  100.000000
ITEM: TIMESTEP
7000
ITEM: NUMBER OF ATOMS
2
ITEM: BOX BOUNDS pp pp pp
0.000000 30.000000
0.000000 30.000000
0.000000 30.000000
ITEM: ATOMS id type mol x y z q
1 1 1  8.711900 22.507633 18.287918  -100.000000
2 1 2  8.725824 22.520929 18.289278  100.000000
ITEM: TIMESTEP
7100
ITEM: NUMBER OF ATOMS
2
ITEM: BOX BOUNDS pp pp pp
0.000000 30.000000
0.000000 30.000000
0.000000 30.000000
ITEM: ATOMS id type mol x y z q
1 1 1  8.960284 22.614653 18.548971  -100.000000
2 1 2  9.030398 22.620380 18.540644  100.000000
ITEM: TIMESTEP
7200
ITEM: NUMBER OF ATOMS
2
ITEM: BOX BOUNDS pp pp pp
0.000000 30.000000
0.000000 30.000000
0.000000 30.000000
ITEM: ATOMS id type mol x y z q
1 1 1  9.160513 22.770750 18.802380  -100.000000
2 1 2  9.209466 22.752081 18.744770  100.000000
ITEM: TIMESTEP
7300
ITEM: NUMBER OF ATOMS
2
ITEM: BOX BOUNDS pp pp pp
0.000000 30.000000
0.000000 30.000000
0.000000 30.000000
ITEM: ATOMS id type mol x y z q
1 1 1  9.187088 23.034084 18.752983  -100.000000
2 1 2  9.171309 22.971848 18.681112  100.000000
ITEM: TIMESTEP
7400
ITEM: NUMBER OF ATOMS
2
ITEM: BOX BOUNDS pp pp pp
0.000000 30.000000
0.000000 30.000000
0.000000 30.000000
ITEM: ATOMS id type mol x y z q
1 1 1  9.676917 23.139828 18.843508  -100.000000
2 1 2  9.629768 23.164454 18.820126  100.000000
ITEM: TIMESTEP
7500
ITEM: NUMBER OF ATOMS
2
ITEM: BOX BOUNDS pp pp pp
0.000000 30.000000
0.000000 30.000000
0.000000 30.000000
ITEM: ATOMS id type mol x y z q
1 1 1  10.010788 23.169054 19.119402  -100.000000
2 1 2  9.982239 23.243452 19.125481  100.000000
ITEM: TIMESTEP
7600
ITEM: NUMBER OF ATOMS
2
ITEM: BOX BOUNDS pp pp pp
0.000000 30.000000
0.000000 30.000000
0.000000 30.000000
ITEM: ATOMS id type mol x y z q
1 1 1  9.945415 23.245731 19.206577  -100.000000
2 1 2  9.990254 23.297138 19.269133  100.000000
ITEM: TIMESTEP
7700
ITEM: NUMBER OF ATOMS
2
ITEM: BOX BOUNDS pp pp pp
0.000000 30.000000
0.000000 30.000000
0.000000 30.000000
ITEM: ATOMS id type mol x y z q
1 1 1  9.763301 23.255968 19.134119  -100.000000
2 1 2  9.809602 23.286602 19.155397  100.000000
ITEM: TIMESTEP
7800
ITEM: NUMBER OF ATOMS
2
ITEM: BOX BOUNDS pp pp pp
0.000000 30.000000
0.000000 30.000000
0.000000 30.000000
ITEM: ATOMS id type mol x y z q
1 1 1  9.559750 23.278433 19.405542  -100.000000
2 1 2  9.609514 23.267351 19.372513  100.000000
ITEM: TIMESTEP
7900
ITEM: NUMBER OF ATOMS
2
ITEM: BOX BOUNDS pp pp pp
0.000000 30.000000
0.000000 30.000000
0.000000 30.000000
ITEM: ATOMS id type mol x y z q
1 1 1  9.493235 23.273258 19.691792  -100.000000
2 1 2  9.485742 23.257420 19.718092  100.000000
ITEM: TIMESTEP
8000
ITEM: NUMBER OF ATOMS
2
ITEM: BOX BOUNDS pp pp pp
0.000000 30.000000
0.000000 30.000000
0.000000 30.000000
ITEM: ATOMS id type mol x y z q
1 1 1  9.318718 23.426432 20.241745  -100.000000
2 1 2  9.299070 23.435579 20.266733  100.000000
ITEM: TIMESTEP
8100
ITEM: NUMBER OF ATOMS
2
ITEM: BOX BOUNDS pp pp pp
0.000000 30.000000
0.000000 30.000000
0.000000 30.000000
ITEM: ATOMS id type mol x y z q
1 1 1  9.265872 23.671473 20.715792  -100.000000
2 1 2  9.224237 23.704271 20.730562  100.000000
ITEM: TIMESTEP
8200
ITEM: NUMBER OF ATOMS
2
ITEM: BOX BOUNDS pp pp pp
0.000000 30.000000
0.000000 30.000000
0.000000 30.000000
ITEM: ATOMS id type mol x y z q
1 1 1  9.464232 23.600370 20.998539  -100.000000
2 1 2  9.435386 23.634624 20.989929  100.000000
ITEM: TIMESTEP
8300
ITEM: NUMBER OF ATOMS
2
ITEM: BOX BOUNDS pp pp pp
0.000000 30.000000
0.000000 30.000000
0.000000 30.000000
ITEM: ATOMS id type mol x y z q
1 1 1  9.593898 23.743240 21.272175  -100.000000
2 1 2  9.592567 23.750553 21.247412  100.000000
ITEM: TIMESTEP
8400
ITEM: NUMBER OF ATOMS
2
ITEM: BOX BOUNDS pp pp pp
0.000000 30.000000
0.000000 30.000000
0.000000 30.000000
ITEM: ATOMS id type mol x y z q
1 1 1  9.436399 23.962597 21.606424  -100.000000
2 1 2  9.417212 23.966803 21.607792  100.000000
ITEM: TIMESTEP
8500
ITEM: NUMBER OF ATOMS
2
ITEM: BOX BOUNDS pp pp pp
0.000000 30.000000
0.000000 30.000000
0.000000 30.000000
ITEM: ATOMS id type mol x y z q
1 1 1  9.099526 24.175097 21.838984  -100.000000
2 1 2  9.120506 24.105818 21.814981  100.000000
ITEM: TIMESTEP
8600
ITEM: NUMBER OF ATOMS
2
ITEM: BOX BOUNDS pp pp pp
0.000000 30.000000
0.000000 30.000000
0.000000 30.000000
ITEM: ATOMS id type mol x y z q
1 1 1  8.783017 24.495958 22.131269  -100.000000
2 1 2  8.841425 24.438480 22.064489  100.000000
ITEM: TIMESTEP
8700
ITEM: NUMBER OF ATOMS
2
ITEM: BOX BOUNDS pp pp pp
0.000000 30.000000
0.000000 30.000000
0.000000 30.000000
ITEM: ATOMS id type mol x y z q
1 1 1  8.914735 25.011236 22.353830  -100.000000
2 1 2  8.944983 24.971651 22.295290  100.000000
ITEM: TIMESTEP
8800
ITEM: NUMBER OF ATOMS
2
ITEM: BOX BOUNDS pp pp pp
0.000000 30.000000
0.000000 30.000000
0.000000 30.000000
ITEM: ATOMS id type mol x y z q
1 1 1  9.163650 25.540777 22.406794  -100.000000
2 1 2  9.145135 25.540730 22.420422  100.000000
ITEM: TIMESTEP
8900
ITEM: NUMBER OF ATOMS
2
ITEM: BOX BOUNDS pp pp pp
0.000000 30.000000
0.000000 30.000000
0.000000 30.000000
ITEM: ATOMS id type mol x y z q
1 1 1  9.352319 25.989107 22.405924  -100.000000
2 1 2  9.304915 25.995081 22.421892  100.000000
ITEM: TIMESTEP
9000
ITEM: NUMBER OF ATOMS
2
ITEM: BOX BOUNDS pp pp pp
0.000000 30.000000
0.000000 30.000000
0.000000 30.000000
ITEM: ATOMS id type mol x y z q
1 1 1  9.614330 26.257339 22.253647  -100.000000
2 1 2  9.616658 26.257460 22.263041  100.000000
ITEM: TIMESTEP
9100
ITEM: NUMBER OF ATOMS
2
ITEM: BOX BOUNDS pp pp pp
0.000000 30.000000
0.000000 30.000000
0.000000 30.000000
ITEM: ATOMS id type mol x y z q
1 1 1  10.100352 26.256748 22.049480  -100.000000
2 1 2  10.065768 26.250658 22.024338  100.000000
ITEM: TIMESTEP
9200
ITEM: NUMBER OF ATOMS
2
ITEM: BOX BOUNDS pp pp pp
0.000000 30.000000
0.000000 30.000000
0.000000 30.000000
ITEM: ATOMS id type mol x y z q
1 1 1  10.630827 26.466459 21.707001  -100.000000
2 1 2  10.595613 26.428097 21.638964  100.000000
ITEM: TIMESTEP
9300
ITEM: NUMBER OF ATOMS
2
ITEM: BOX BOUNDS pp pp pp
0.000000 30.000000
0.000000 30.000000
0.000000 30.000000
ITEM: ATOMS id type mol x y z q
1 1 1  11.042143 26.187834 21.106319  -100.000000
2 1 2  11.006309 26.172268 21.152946  100.000000
ITEM: TIMESTEP
9400
ITEM: NUMBER OF ATOMS
2
ITEM: BOX BOUNDS pp pp pp
0.000000 30.000000
0.000000 30.000000
0.000000 30.000000
ITEM: ATOMS id type mol x y z q
1 1 1  11.408977 26.027178 20.755844  -100.000000
2 1 2  11.416823 25.985004 20.794249  100.000000
ITEM: TIMESTEP
9500
ITEM: NUMBER OF ATOMS
2
ITEM: BOX BOUNDS pp pp pp
0.000000 30.000000
0.000000 30.000000
0.000000 30.000000
ITEM: ATOMS id type mol x y z q
1 1 1  11.534406 25.810621 20.241823  -100.000000
2 1 2  11.556806 25.832411 20.243273  100.000000
ITEM: TIMESTEP
9600
ITEM: NUMBER OF ATOMS
2
ITEM: BOX BOUNDS pp pp pp
0.000000 30.000000
0.000000 30.000000
0.000000 30.000000
ITEM: ATOMS id type mol x y z q
1 1 1  11.575425 25.343697 20.092932  -100.000000
2 1 2  11.576608 25.341286 20.095892  100.000000
ITEM: TIMESTEP
9700
ITEM: NUMBER OF ATOMS
2
ITEM: BOX BOUNDS pp pp pp
0.000000 30.000000
0.000000 30.000000
0.000000 30.000000
ITEM: ATOMS id type mol x y z q
1 1 1  11.711495 24.813375 19.947338  -100.000000
2 1 2  11.702435 24.809158 19.960476  100.000000
ITEM: TIMESTEP
9800
ITEM: NUMBER OF ATOMS
2
ITEM: BOX BOUNDS pp pp pp
0.000000 30.000000
0.000000 30.000000
0.000000 30.000000
ITEM: ATOMS id type mol x y z q
1 1 1  11.710196 24.218618 19.510838  -100.000000
2 1 2  11.686462 24.232628 19.498623  100.000000
ITEM: TIMESTEP
9900
ITEM: NUMBER OF ATOMS
2
ITEM: BOX BOUNDS pp pp pp
0.000000 30.000000
0.000000 30.000000
0.000000 30.000000
ITEM: ATOMS id type mol x y z q
1 1 1  11.203381 23.631311 19.120945  -100.000000
2 1 2  11.204556 23.644194 19.122524  100.000000
ITEM: TIMESTEP
10000
ITEM: NUMBER OF ATOMS
2
ITEM: BOX BOUNDS pp pp pp
0.000000 30.000000
0.000000 30.000000
0.000000 30.000000
ITEM: ATOMS id type mol x y z q
1 1 1  11.015395 23.007751 18.946178  -100.000000
2 1 2  11.005031 23.026819 18.935448  100.000000
ITEM: TIMESTEP
10002
ITEM: NUMBER OF ATOMS
2
ITEM: BOX BOUNDS pp pp pp
0.000000 30.000000
0.000000 30.000000
0.000000 30.000000
ITEM: ATOMS id type mol x y z q
1 1 1  11.015100 23.002804 18.947165  -100.000000
2 1 2  11.003253 23.022259 18.934437  100.000000
